ITEM: TIMESTEP
0
ITEM: NUMBER OF ATOMS
24
ITEM: BOX BOUNDS pp pp pp
0.0000000000000000e+00 1.0000000000000000e+01
0.0000000000000000e+00 1.0000000000000000e+01
0.0000000000000000e+00 1.0000000000000000e+01
ITEM: ATOMS id mol type x y z ix iy iz
37 8 2 8.00077 1.45445 0.298218 0 0 0
6 2 1 1.09929 5.08447 0.20052 0 0 0
7 2 2 2.17208 5.66948 0.404059 0 0 0
36 8 1 7.70803 0.713782 0.917295 0 0 0
8 2 2 1.40626 6.14 0.712882 0 0 0
28 6 2 5.56945 6.90224 1.7097 0 0 0
1 1 1 5.66958 3.3221 2.42055 0 0 0
26 6 1 4.90931 6.55871 2.07375 0 0 0
27 6 2 5.69652 6.63617 2.62675 0 0 0
2 1 2 5.32591 3.97004 3.05169 0 0 0
13 3 2 8.08281 6.15077 2.96942 0 0 0
16 4 1 8.353 8.18776 3.14729 0 0 0
3 1 2 5.3507 3.18786 3.62593 0 0 0
12 3 2 8.57669 6.75095 3.53512 0 0 0
17 4 2 9.1685 8.15498 3.76772 0 0 0
11 3 1 8.16584 6.85619 4.62873 0 0 0
18 4 2 9.8215 8.71648 4.32296 0 0 0
21 5 1 4.33797 6.71238 6.29668 0 0 0
22 5 2 4.02604 6.45978 7.32594 0 0 0
23 5 2 4.3705 7.34623 7.2772 0 0 0
33 7 2 1.86545 2.30151 8.57591 0 0 0
31 7 1 2.69032 3.32603 8.65619 0 0 0
38 8 2 7.70069 1.21155 9.48251 0 0 0
32 7 2 2.62716 2.60994 9.39169 0 0 0
ITEM: TIMESTEP
5000
ITEM: NUMBER OF ATOMS
24
ITEM: BOX BOUNDS pp pp pp
0.0000000000000000e+00 1.0000000000000000e+01
0.0000000000000000e+00 1.0000000000000000e+01
0.0000000000000000e+00 1.0000000000000000e+01
ITEM: ATOMS id mol type x y z ix iy iz
11 3 1 1.07142 0.175875 0.575485 1 1 0
21 5 1 1.67065 0.0685615 0.29014 0 1 1
12 3 2 1.22788 0.758389 0.103728 1 1 0
23 5 2 1.75553 9.65496 0.065235 0 0 1
37 8 2 1.98214 0.460605 0.962073 0 1 0
1 1 1 0.204991 0.788825 0.802307 1 1 1
2 1 2 9.73009 1.06619 0.882026 0 1 1
3 1 2 9.87329 1.42102 0.852834 0 1 1
38 8 2 1.44387 9.92501 1.3116 0 0 1
36 8 1 1.38868 9.82132 1.38651 0 0 0
28 6 2 3.45155 0.139725 4.89106 0 1 0
33 7 2 3.21999 8.50008 5.11734 0 -1 0
31 7 1 3.29648 9.072 4.82823 0 -1 0
32 7 2 3.35226 8.94851 4.85816 0 -1 0
26 6 1 3.75384 0.519855 5.57381 0 1 0
27 6 2 3.56667 0.334609 5.337 0 1 0
7 2 2 3.80966 8.97467 5.63769 -1 0 -1
8 2 2 4.07356 9.31573 5.79378 -1 0 -1
6 2 1 4.04005 9.42708 5.58796 -1 0 -1
16 4 1 1.1218 5.93758 6.4356 1 0 0
18 4 2 1.00287 6.63401 6.62662 1 0 0
17 4 2 0.911826 6.47424 6.14107 1 0 0
13 3 2 1.17737 1.11326 9.86255 1 1 -1
22 5 2 1.16527 9.59769 9.84803 0 0 0
ITEM: TIMESTEP
10000
ITEM: NUMBER OF ATOMS
24
ITEM: BOX BOUNDS pp pp pp
0.0000000000000000e+00 1.0000000000000000e+01
0.0000000000000000e+00 1.0000000000000000e+01
0.0000000000000000e+00 1.0000000000000000e+01
ITEM: ATOMS id mol type x y z ix iy iz
3 1 2 8.7212 5.1094 3.30424 1 1 2
1 1 1 8.71734 5.34461 3.23502 1 1 2
2 1 2 8.47885 5.36094 3.51386 1 1 2
6 2 1 6.62308 8.4044 3.79276 -2 0 -1
23 5 2 3.96587 3.01187 4.6531 0 1 1
21 5 1 3.91261 2.76993 4.51645 0 1 1
8 2 2 6.45131 8.42383 4.24177 -2 0 -1
7 2 2 6.58904 8.39271 4.03408 -2 0 -1
22 5 2 4.08354 2.82117 4.84008 0 1 1
13 3 2 7.43946 8.59557 5.9789 1 0 -2
37 8 2 7.94978 0.000413992 6.52314 0 0 -2
11 3 1 7.06787 9.17482 6.6092 1 0 -2
12 3 2 6.94816 8.81782 6.59714 1 0 -2
38 8 2 8.39983 9.94678 6.64842 0 -1 -1
36 8 1 8.01141 0.414053 6.71348 0 0 -2
32 7 2 7.59086 8.9117 7.23325 0 -2 -1
31 7 1 8.11614 9.18242 6.85153 0 -2 -1
33 7 2 8.0222 8.90991 6.92912 0 -2 -1
17 4 2 5.56507 6.38488 8.50813 1 1 -1
16 4 1 5.6056 7.02627 8.51499 1 1 -1
18 4 2 5.37637 7.01607 8.39963 1 1 -1
27 6 2 6.77458 2.04317 9.04703 0 1 0
28 6 2 6.7177 2.34306 9.18866 0 1 0
26 6 1 6.80183 2.01716 9.39352 0 1 0
ITEM: TIMESTEP
15000
ITEM: NUMBER OF ATOMS
24
ITEM: BOX BOUNDS pp pp pp
0.0000000000000000e+00 1.0000000000000000e+01
0.0000000000000000e+00 1.0000000000000000e+01
0.0000000000000000e+00 1.0000000000000000e+01
ITEM: ATOMS id mol type x y z ix iy iz
13 3 2 3.28499 4.37869 3.25794 2 0 -1
37 8 2 8.84258 7.67683 3.31654 0 0 -2
36 8 1 8.95639 7.75863 3.1517 0 0 -2
11 3 1 3.14252 5.02848 3.4213 2 0 -1
12 3 2 3.02609 4.73903 3.59115 2 0 -1
38 8 2 8.94746 7.80088 3.33965 0 0 -1
32 7 2 0.674305 5.57912 5.20134 1 -2 -1
33 7 2 1.05315 5.89508 5.72679 1 -2 -1
31 7 1 1.24687 5.84591 5.85167 1 -2 -1
16 4 1 1.29795 6.41891 6.31457 1 1 -1
18 4 2 1.43118 6.63101 6.49377 1 1 -1
2 1 2 0.63443 6.1122 7.10811 1 1 2
17 4 2 1.11315 6.29165 6.69386 1 1 -1
27 6 2 9.59108 6.50317 6.85758 -2 1 0
26 6 1 9.72819 6.44983 7.2236 -2 1 0
28 6 2 9.39548 6.29774 6.70557 -2 1 0
1 1 1 0.374487 5.779 7.44856 1 1 2
3 1 2 0.415393 5.88747 7.46246 1 1 2
8 2 2 2.52454 1.47032 8.70909 -2 1 -2
7 2 2 2.29648 1.39357 9.17954 -2 1 -2
6 2 1 2.44016 1.52213 8.73166 -2 1 -2
22 5 2 0.222923 9.27299 8.74718 0 0 1
23 5 2 0.405657 9.13507 9.0351 0 0 1
21 5 1 0.138219 9.34068 9.02706 0 0 1
ITEM: TIMESTEP
20000
ITEM: NUMBER OF ATOMS
24
ITEM: BOX BOUNDS pp pp pp
0.0000000000000000e+00 1.0000000000000000e+01
0.0000000000000000e+00 1.0000000000000000e+01
0.0000000000000000e+00 1.0000000000000000e+01
ITEM: ATOMS id mol type x y z ix iy iz
21 5 1 7.85612 5.83565 0.608821 0 0 1
32 7 2 8.91464 6.32467 0.484749 1 -2 0
7 2 2 0.0290574 1.89466 1.18349 -2 1 -1
8 2 2 0.251415 2.14345 1.30024 -2 1 -1
6 2 1 0.265003 2.36061 1.26898 -2 1 -1
23 5 2 7.48363 5.83605 0.697791 0 0 1
22 5 2 7.69271 5.46305 0.85031 0 0 1
33 7 2 9.17597 5.98282 0.679291 1 -2 0
31 7 1 8.64043 6.18766 0.708115 1 -2 0
16 4 1 7.05316 7.27113 3.6405 0 2 -1
18 4 2 6.97669 7.37886 3.80531 0 2 -1
17 4 2 6.91499 7.3969 3.86239 0 2 -1
12 3 2 6.97138 6.47465 4.26956 2 0 -2
2 1 2 6.96189 6.38978 4.98813 1 2 2
37 8 2 7.87027 6.63004 5.06383 0 0 -2
38 8 2 8.17164 6.42745 5.15637 0 0 -1
1 1 1 6.22734 6.83074 4.86276 1 2 2
3 1 2 6.2234 6.71605 4.81209 1 2 2
11 3 1 7.15573 7.22892 4.88802 2 0 -2
13 3 2 7.07762 7.23207 4.73151 2 0 -2
36 8 1 7.92454 6.70504 5.29008 0 0 -2
26 6 1 1.85479 1.66096 5.87707 -2 2 -1
27 6 2 1.737 2.11214 5.92541 -2 2 -1
28 6 2 1.64887 2.11889 5.89048 -2 2 -1
ITEM: TIMESTEP
25000
ITEM: NUMBER OF ATOMS
24
ITEM: BOX BOUNDS pp pp pp
0.0000000000000000e+00 1.0000000000000000e+01
0.0000000000000000e+00 1.0000000000000000e+01
0.0000000000000000e+00 1.0000000000000000e+01
ITEM: ATOMS id mol type x y z ix iy iz
12 3 2 8.41713 2.94857 0.356167 2 1 -1
2 1 2 8.40845 5.90233 0.0189297 1 2 3
17 4 2 8.52289 8.09532 0.54688 0 2 -1
18 4 2 8.41118 8.38029 0.365863 0 2 -1
11 3 1 8.41391 3.00497 0.675998 2 1 -1
16 4 1 8.61511 8.05001 0.748611 0 2 -1
36 8 1 1.23103 0.886412 2.35352 0 1 -2
37 8 2 1.43134 0.815485 2.28501 0 1 -2
38 8 2 0.882606 0.600589 3.02229 0 1 -1
32 7 2 3.82739 6.46179 5.86363 1 -2 -1
26 6 1 3.06226 5.94237 6.61699 -2 1 -2
31 7 1 3.70279 5.89818 6.24882 1 -2 -1
28 6 2 3.15603 6.5283 6.62036 -2 1 -2
33 7 2 3.83696 6.05677 6.09023 1 -2 -1
8 2 2 4.16012 5.17824 7.00023 -3 0 -2
22 5 2 8.48901 5.24003 7.17333 0 -1 -1
21 5 1 8.44977 4.99295 7.19805 0 -1 -1
6 2 1 3.83989 5.51527 6.89122 -3 0 -2
7 2 2 4.45331 5.39611 7.25627 -3 0 -2
27 6 2 3.31146 6.33109 6.87811 -2 1 -2
23 5 2 8.26762 4.71838 7.46628 0 -1 -1
13 3 2 8.44968 3.00026 9.97803 2 1 -2
3 1 2 8.64955 5.84548 9.70444 1 2 2
1 1 1 8.46266 5.90513 9.76944 1 2 2
ITEM: TIMESTEP
30000
ITEM: NUMBER OF ATOMS
24
ITEM: BOX BOUNDS pp pp pp
0.0000000000000000e+00 1.0000000000000000e+01
0.0000000000000000e+00 1.0000000000000000e+01
0.0000000000000000e+00 1.0000000000000000e+01
ITEM: ATOMS id mol type x y z ix iy iz
7 2 2 2.93956 1.29959 0.473242 -2 0 -2
6 2 1 3.02778 0.725061 0.64646 -2 0 -2
32 7 2 8.39883 3.08477 0.50786 0 -2 0
33 7 2 8.21837 3.09244 0.593457 0 -2 0
8 2 2 2.94668 0.747051 0.74444 -2 0 -2
21 5 1 9.43182 1.0556 0.920603 0 -1 0
22 5 2 9.69321 1.19197 1.01253 0 -1 0
31 7 1 8.07412 3.21847 1.08877 0 -2 0
23 5 2 9.53602 0.887709 1.48669 0 -1 0
13 3 2 1.64484 5.41864 1.48819 3 1 -1
12 3 2 1.67495 5.64319 1.39885 3 1 -1
11 3 1 1.81825 5.41707 1.53817 3 1 -1
2 1 2 8.47589 5.46835 3.72352 0 2 2
3 1 2 8.489 5.54878 4.26239 0 2 2
1 1 1 8.27215 5.53409 4.10395 0 2 2
27 6 2 8.37656 3.76129 5.24134 -3 2 -2
26 6 1 7.90254 3.50915 5.56051 -3 2 -2
28 6 2 8.13939 3.50959 5.78418 -3 2 -2
38 8 2 1.98573 4.51936 6.25124 -1 0 -1
36 8 1 2.2092 4.53495 6.59591 -1 0 -2
37 8 2 2.00127 5.25028 6.63389 -1 0 -2
16 4 1 5.19666 1.38105 8.65164 0 3 -2
17 4 2 5.2662 0.710054 8.97023 0 3 -2
18 4 2 5.1651 0.882898 8.69954 0 3 -2
ITEM: TIMESTEP
35000
ITEM: NUMBER OF ATOMS
24
ITEM: BOX BOUNDS pp pp pp
0.0000000000000000e+00 1.0000000000000000e+01
0.0000000000000000e+00 1.0000000000000000e+01
0.0000000000000000e+00 1.0000000000000000e+01
ITEM: ATOMS id mol type x y z ix iy iz
6 2 1 6.53755 1.3184 0.394639 -3 0 -2
7 2 2 6.5679 1.22137 0.442889 -3 0 -2
28 6 2 7.37879 0.854368 0.00240611 -2 2 -1
8 2 2 6.13827 1.3686 0.41125 -3 0 -2
3 1 2 2.36601 0.662095 1.93922 0 2 2
2 1 2 2.71424 0.991403 1.69471 0 2 2
1 1 1 2.69113 0.752644 1.55223 0 2 2
17 4 2 5.18367 3.58737 2.25053 -1 4 -2
18 4 2 5.57654 3.64305 2.4296 -1 4 -2
16 4 1 5.43433 3.83186 2.1968 -1 4 -2
31 7 1 2.64068 0.897569 3.5079 1 -2 -1
33 7 2 2.88274 0.840234 3.45353 1 -2 -1
32 7 2 2.882 0.887428 3.82185 1 -2 -1
21 5 1 4.35222 0.890891 5.72705 1 -1 -1
23 5 2 4.07993 1.04456 5.93579 1 -1 -1
22 5 2 4.92651 0.86478 6.27281 1 -1 -1
11 3 1 4.12058 3.85409 6.15354 4 0 -2
13 3 2 4.18435 3.70737 6.25103 4 0 -2
12 3 2 5.02755 4.32105 6.15111 4 0 -2
37 8 2 4.84905 9.83544 6.38428 -1 -1 -1
36 8 1 4.78281 9.99441 6.43032 -1 -1 -1
38 8 2 5.21789 9.95728 6.60136 -1 -1 0
27 6 2 7.23218 0.634005 9.49457 -2 2 -2
26 6 1 7.1743 0.910897 9.78216 -2 2 -2
