ITEM: TIMESTEP
0
ITEM: NUMBER OF ATOMS
2000
ITEM: BOX BOUNDS pp pp pp
0.0000000000000000e+00 3.0000000000000000e+01
0.0000000000000000e+00 3.0000000000000000e+01
0.0000000000000000e+00 3.0000000000000000e+01
ITEM: ATOMS id mol type x y z ix iy iz
956 48 2 19.1285 3.19262 0.306879 0 0 0
547 28 1 5.17045 5.5338 0.313437 0 0 0
1519 76 2 28.3469 5.29156 0.409267 0 0 0
1517 76 2 28.3613 5.35145 0.604744 0 0 0
1520 76 2 28.6938 6.21149 0.482667 0 0 0
1518 76 2 28.8254 6.35939 0.293103 0 0 0
362 19 1 26.9419 8.44064 0.583354 0 0 0
365 19 1 27.0105 8.00459 0.0417621 0 0 0
2226 112 1 15.4759 9.07116 0.371296 0 0 0
1855 93 2 2.68496 10.4178 0.61186 0 0 0
1 1 1 5.60742 10.4244 0.138199 0 0 0
2227 112 1 14.8595 10.0561 0.256249 0 0 0
1854 93 2 1.82648 10.6533 0.435981 0 0 0
604 31 1 9.24061 11.635 0.313447 0 0 0
608 31 1 7.50072 13.0114 0.159038 0 0 0
607 31 1 8.29672 12.925 0.419156 0 0 0
2335 117 2 19.6277 12.5749 0.375192 0 0 0
2334 117 2 20.5398 13.2235 0.182399 0 0 0
542 28 1 6.2149 3.34826 1.25144 0 0 0
955 48 2 19.9444 3.49261 1.02705 0 0 0
541 28 1 5.45354 4.14999 1.13084 0 0 0
2360 118 2 15.5429 4.21165 0.799653 0 0 0
548 28 1 4.65599 5.33283 1.02593 0 0 0
544 28 1 6.03826 5.2642 0.739624 0 0 0
549 28 1 4.14197 6.07042 0.939833 0 0 0
546 28 1 5.08138 6.29646 1.02018 0 0 0
2355 118 2 14.677 6.34649 0.763905 0 0 0
2356 118 2 15.4549 6.11088 1.13334 0 0 0
2357 118 2 16.0591 6.93376 1.14217 0 0 0
2354 118 2 14.3339 7.21198 0.98643 0 0 0
2221 112 1 16.1898 8.32321 0.719548 0 0 0
2321 117 1 18.8554 8.14188 0.864953 0 0 0
361 19 1 26.2566 8.29845 1.20275 0 0 0
364 19 1 26.5684 8.86661 0.720572 0 0 0
1856 93 2 2.51093 9.4883 1.09969 0 0 0
2228 112 1 15.7781 9.60743 0.738677 0 0 0
2326 117 1 19.8822 9.60246 0.784903 0 0 0
1859 93 2 0.824842 10.2134 1.17745 0 0 0
2327 117 1 20.2315 10.4497 0.789404 0 0 0
2329 117 1 19.822 11.1553 0.848668 0 0 0
2338 117 2 18.3332 11.9054 0.789734 0 0 0
2336 117 2 18.7926 12.7466 0.884581 0 0 0
609 31 1 7.1645 13.2613 1.15203 0 0 0
926 47 1 12.4368 14.9985 1.24271 0 0 0
1425 72 1 19.1046 1.86365 1.78091 0 0 0
1424 72 1 20.0959 1.90823 1.56274 0 0 0
954 48 2 20.6367 3.63433 1.61056 0 0 0
2359 118 2 15.6618 4.84881 1.59876 0 0 0
307 16 1 25.2234 4.85177 1.89465 0 0 0
545 28 1 5.44132 5.54305 1.59092 0 0 0
1515 76 2 27.3199 5.53087 1.62843 0 0 0
1516 76 2 28.3517 5.31269 1.61736 0 0 0
2353 118 2 14.6519 6.48207 1.69223 0 0 0
2358 118 2 15.6468 5.98564 1.37078 0 0 0
305 16 1 24.1206 5.9159 1.70854 0 0 0
1514 76 2 26.436 6.06571 1.62824 0 0 0
1513 76 2 25.4675 6.72105 1.58002 0 0 0
2222 112 1 17.0052 8.24797 1.41837 0 0 0
2322 117 1 18.6423 8.34918 1.82365 0 0 0
2225 112 1 15.7991 9.0649 1.42087 0 0 0
2224 112 1 16.7253 8.56175 1.33699 0 0 0
1858 93 2 1.65556 10.0224 1.61228 0 0 0
1860 93 2 1.79945 10.3668 1.49913 0 0 0
2325 117 1 20.1006 10.2025 1.63678 0 0 0
2229 112 1 15.9356 10.4434 1.38558 0 0 0
601 31 1 7.70328 11.1112 1.61142 0 0 0
2233 112 2 16.1041 11.7968 1.4759 0 0 0
2337 117 2 18.7744 11.8296 1.57148 0 0 0
2340 117 2 17.4713 12.5431 1.52184 0 0 0
2339 117 2 18.4849 12.4656 1.62256 0 0 0
618 31 2 4.61373 14.8852 1.77216 0 0 0
620 31 2 4.63694 14.5345 1.65235 0 0 0
1422 72 1 20.3402 1.27556 2.46814 0 0 0
1426 72 1 18.5803 2.4292 2.26358 0 0 0
953 48 2 21.0692 3.18509 2.44059 0 0 0
308 16 1 24.7666 4.04876 2.20592 0 0 0
306 16 1 24.4904 5.27263 2.41128 0 0 0
1509 76 1 25.8268 5.8294 2.49929 0 0 0
2347 118 1 14.1597 7.35157 2.59397 0 0 0
1857 93 2 2.27047 9.24765 2.11922 0 0 0
2324 117 1 19.4363 9.63051 2.52825 0 0 0
602 31 1 8.5182 11.3998 2.15122 0 0 0
2234 112 2 16.4547 12.3021 2.19376 0 0 0
2236 112 2 16.0679 12.4576 2.21816 0 0 0
984 50 1 1.54936 14.6472 2.54199 0 0 0
1428 72 1 17.6554 1.69583 3.16289 0 0 0
1421 72 1 19.558 1.41392 2.95206 0 0 0
1427 72 1 18.5095 2.27197 3.19134 0 0 0
948 48 1 19.3674 2.857 3.01232 0 0 0
316 16 2 24.2009 2.76664 3.18775 0 0 0
309 16 1 23.9422 4.13353 2.66099 0 0 0
302 16 1 22.2842 4.7556 2.80841 0 0 0
304 16 1 23.8024 5.99915 2.72989 0 0 0
2348 118 1 14.7495 6.90827 3.23596 0 0 0
2346 118 1 13.2062 7.71119 2.92985 0 0 0
2235 112 2 16.1053 12.3757 3.14184 0 0 0
921 47 1 10.7053 13.4853 2.69407 0 0 0
2237 112 2 16.034 13.2472 2.94066 0 0 0
985 50 1 0.707866 14.003 2.74628 0 0 0
987 50 1 2.01556 13.7666 2.91577 0 0 0
986 50 1 1.36472 14.6967 3.12499 0 0 0
922 47 1 10.4401 14.4165 2.64283 0 0 0
1429 72 1 18.0502 0.833741 3.52685 0 0 0
318 16 2 22.9227 1.67238 3.36108 0 0 0
949 48 1 19.9961 2.23618 3.53237 0 0 0
317 16 2 23.18 2.54639 3.37736 0 0 0
315 16 2 23.3519 3.2159 3.6703 0 0 0
947 48 1 19.4774 3.49393 3.87659 0 0 0
314 16 2 22.5516 3.66528 3.82799 0 0 0
301 16 1 21.8808 5.11159 3.62728 0 0 0
1507 76 1 25.9877 4.57809 3.67468 0 0 0
1508 76 1 25.5173 5.44356 3.3155 0 0 0
2349 118 1 15.474 6.62191 3.40784 0 0 0
2345 118 1 12.4377 7.70208 3.39659 0 0 0
989 50 1 1.84528 14.9837 3.48666 0 0 0
320 16 2 22.7774 1.25832 4.23342 0 0 0
319 16 2 22.8072 2.10209 4.40499 0 0 0
945 48 1 19.5674 2.9103 4.50903 0 0 0
946 48 1 20.1805 3.84001 4.49831 0 0 0
313 16 2 23.0568 4.3383 4.35789 0 0 0
1504 76 1 26.3489 4.45685 4.11494 0 0 0
1439 72 2 17.2509 5.33482 4.51477 0 0 0
1506 76 1 25.8527 5.24894 4.36526 0 0 0
88 5 1 22.2169 7.34778 4.39929 0 0 0
87 5 1 23.2141 7.65908 3.94156 0 0 0
2344 118 1 11.8335 7.94608 4.0526 0 0 0
1100 55 2 16.5723 8.12047 4.22548 0 0 0
89 5 1 21.3246 7.93441 4.27262 0 0 0
85 5 1 23.2726 8.06698 4.02895 0 0 0
84 5 1 22.8245 9.01741 4.1649 0 0 0
24 2 1 25.4002 9.07677 4.5162 0 0 0
81 5 1 24.285 10.1283 4.43878 0 0 0
82 5 1 23.7215 10.689 3.94042 0 0 0
340 17 2 21.2713 12.0838 4.09602 0 0 0
2238 112 2 15.7196 12.9901 3.94782 0 0 0
988 50 1 1.96855 14.1029 4.00208 0 0 0
1529 77 1 16.7205 0.642028 4.79382 0 0 0
1537 77 2 19.9074 0.0146549 5.20618 0 0 0
1524 77 1 14.617 0.935338 5.13007 0 0 0
1525 77 1 15.6843 0.9629 4.85277 0 0 0
1528 77 1 16.3421 1.50389 5.0715 0 0 0
1433 72 2 17.9496 2.61523 5.08741 0 0 0
1436 72 2 15.9912 3.45742 4.61716 0 0 0
1501 76 1 27.1977 4.08022 5.11949 0 0 0
1438 72 2 16.3173 4.81213 4.73471 0 0 0
1505 76 1 26.5106 4.82075 4.80508 0 0 0
2022 102 1 19.7521 5.2626 5.19168 0 0 0
1440 72 2 17.3284 6.34598 5.03233 0 0 0
2021 102 1 19.2922 6.17669 4.89173 0 0 0
2341 118 1 13.0675 7.17265 5.1703 0 0 0
1099 55 2 16.8593 7.58362 4.90407 0 0 0
2342 118 1 13.0776 8.1353 4.99871 0 0 0
1444 73 1 15.3013 8.27827 5.12008 0 0 0
93 5 2 20.5117 7.85563 4.85793 0 0 0
86 5 1 22.8949 7.87775 4.90309 0 0 0
25 2 1 26.1714 9.65043 5.0578 0 0 0
182 10 1 3.14325 10.3857 5.1528 0 0 0
26 2 1 27.0536 9.93713 4.77319 0 0 0
181 10 1 3.28545 11.2886 4.73513 0 0 0
1448 73 1 17.3915 11.3691 5.03098 0 0 0
339 17 2 20.3407 12.3331 4.59291 0 0 0
2239 112 2 15.2542 13.6183 4.75932 0 0 0
338 17 2 19.5514 13.1059 4.63052 0 0 0
504 26 1 9.037 14.209 4.66332 0 0 0
997 50 2 4.33544 14.6682 4.94723 0 0 0
505 26 1 9.90094 14.8774 4.98883 0 0 0
507 26 1 10.7938 14.5526 4.87379 0 0 0
2240 112 2 15.8947 14.4671 4.64473 0 0 0
2074 104 2 23.7951 14.8244 4.94191 0 0 0
2086 105 1 8.01078 0.0562136 5.48063 0 0 0
1535 77 2 18.735 0.3995 5.84291 0 0 0
2085 105 1 7.45585 0.764932 5.84489 0 0 0
1527 77 1 15.9826 0.730257 5.40659 0 0 0
1526 77 1 15.6549 1.71907 5.57332 0 0 0
2460 123 2 22.5531 2.17679 5.4055 0 0 0
2456 123 2 24.3658 2.40737 5.69035 0 0 0
2455 123 2 25.3279 2.0777 5.73047 0 0 0
1435 72 2 16.2373 3.17295 5.39102 0 0 0
1434 72 2 17.2477 3.21166 5.28107 0 0 0
944 48 1 20.2646 2.92383 5.47677 0 0 0
2457 123 2 23.4714 2.82652 5.45865 0 0 0
2453 123 2 25.3539 2.70818 5.85731 0 0 0
1437 72 2 15.6394 4.49635 5.24712 0 0 0
2024 102 1 20.8407 5.24947 5.81847 0 0 0
1098 55 2 16.5882 6.68329 5.49565 0 0 0
100 5 2 21.9267 6.52776 5.44243 0 0 0
94 5 2 19.8454 7.8347 5.68874 0 0 0
22 2 1 26.6494 8.29214 5.38099 0 0 0
1445 73 1 15.7683 8.92438 5.55644 0 0 0
1446 73 1 16.2658 9.7359 5.67194 0 0 0
27 2 1 26.6645 9.6662 5.78085 0 0 0
1447 73 1 16.8421 10.6154 5.55694 0 0 0
1449 73 1 17.242 12.0373 5.62258 0 0 0
337 17 2 18.8785 13.0512 5.50599 0 0 0
502 26 1 7.44818 13.92 5.71514 0 0 0
335 17 2 17.7085 14.1701 5.84788 0 0 0
996 50 2 3.52182 14.7934 5.71785 0 0 0
506 26 1 10.3786 14.7293 5.78457 0 0 0
2084 105 1 6.71746 0.252864 6.47723 0 0 0
1536 77 2 19.8507 0.573862 6.05462 0 0 0
2087 105 1 8.49633 0.853423 6.1098 0 0 0
1533 77 2 19.0641 0.694676 5.92679 0 0 0
2447 123 1 25.0396 1.30218 6.04586 0 0 0
2459 123 2 22.5534 2.15928 6.37542 0 0 0
2458 123 2 23.5525 2.1184 6.11801 0 0 0
2449 123 1 24.5244 2.45805 6.52155 0 0 0
2454 123 2 26.0093 2.83734 6.40459 0 0 0
2025 102 1 20.0304 4.7378 6.3121 0 0 0
1502 76 1 27.1712 4.63434 5.97902 0 0 0
99 5 2 21.078 6.48534 6.19316 0 0 0
1097 55 2 15.6073 7.13409 5.93157 0 0 0
1095 55 2 15.9443 7.91013 6.1539 0 0 0
21 2 1 26.942 8.82405 6.32684 0 0 0
1442 73 1 15.0422 9.19054 6.12503 0 0 0
184 10 1 3.84569 10.0773 6.02046 0 0 0
186 10 1 3.34545 11.0334 6.49549 0 0 0
28 2 1 26.0207 10.4409 6.09231 0 0 0
321 17 1 21.4367 11.6669 6.51192 0 0 0
501 26 1 8.19273 13.3734 6.10797 0 0 0
336 17 2 18.178 13.3576 6.16809 0 0 0
1458 73 2 13.3736 13.7703 6.29467 0 0 0
334 17 2 16.8229 14.1283 6.29862 0 0 0
333 17 2 17.5819 14.3603 6.35288 0 0 0
1534 77 2 18.4955 0.534267 6.77243 0 0 0
2082 105 1 5.7119 0.93836 6.64186 0 0 0
2088 105 1 8.39337 0.893086 7.04 0 0 0
2089 105 1 9.33436 1.10541 6.57513 0 0 0
942 48 1 20.4342 1.53366 6.5753 0 0 0
2448 123 1 24.4366 1.626 6.78021 0 0 0
2446 123 1 25.1246 1.64624 6.89909 0 0 0
2445 123 1 25.9149 1.85483 6.7389 0 0 0
941 48 1 20.9658 2.38682 6.59553 0 0 0
2026 102 1 19.3076 4.06705 6.65644 0 0 0
97 5 2 20.5619 6.60579 6.83112 0 0 0
1096 55 2 16.1966 7.29944 6.92049 0 0 0
1094 55 2 16.7116 7.57169 6.63114 0 0 0
98 5 2 21.1724 7.34054 6.80512 0 0 0
1093 55 2 17.2643 8.33679 6.88197 0 0 0
95 5 2 19.8616 8.11188 6.63075 0 0 0
1840 92 2 25.4827 7.85745 7.02025 0 0 0
841 43 1 9.83444 9.23625 6.78218 0 0 0
185 10 1 3.90875 10.4313 6.8891 0 0 0
1441 73 1 15.3584 9.91046 6.7317 0 0 0
324 17 1 20.3641 10.8951 7.13209 0 0 0
29 2 1 26.402 11.0361 6.86408 0 0 0
187 10 1 3.15649 11.8744 7.077 0 0 0
1920 96 2 6.01678 11.8225 6.85099 0 0 0
2407 121 1 27.225 12.8751 7.00015 0 0 0
1457 73 2 14.085 13.1135 6.61169 0 0 0
1459 73 2 13.4565 14.6575 6.58702 0 0 0
2081 105 1 5.64695 1.28814 7.55255 0 0 0
2444 123 1 26.2581 1.9712 7.63753 0 0 0
2027 102 1 19.1989 3.34838 7.2711 0 0 0
1837 92 2 25.9921 6.66519 7.54318 0 0 0
96 5 2 19.6685 7.31334 7.19218 0 0 0
1089 55 1 18.9852 8.10629 7.81662 0 0 0
193 10 2 3.49148 9.71289 7.76408 0 0 0
195 10 2 3.93714 9.58204 7.76131 0 0 0
842 43 1 9.90774 9.8666 7.45638 0 0 0
34 2 2 24.068 10.3231 7.61694 0 0 0
36 2 2 23.546 9.84317 7.63649 0 0 0
188 10 1 2.91085 11.0276 7.48923 0 0 0
326 17 1 20.0708 10.8566 7.55087 0 0 0
33 2 2 25.2096 10.5241 7.25923 0 0 0
200 10 2 4.41147 11.6073 7.66906 0 0 0
1919 96 2 6.7941 11.7354 7.76016 0 0 0
325 17 1 19.9883 11.6063 7.78111 0 0 0
322 17 1 20.9597 11.2846 7.20201 0 0 0
2408 121 1 26.4102 12.4739 7.49793 0 0 0
2406 121 1 27.7119 12.6395 7.79064 0 0 0
1456 73 2 14.1465 13.5528 7.36665 0 0 0
1455 73 2 15.0347 13.6903 7.49503 0 0 0
1454 73 2 15.9127 14.1337 7.61899 0 0 0
1453 73 2 16.8914 13.7813 7.4847 0 0 0
2093 105 2 7.91088 0.545368 8.07334 0 0 0
2096 105 2 7.14758 0.66837 8.05692 0 0 0
60 3 2 1.24452 1.3598 8.46227 0 0 0
2028 102 1 18.6463 2.9676 7.89871 0 0 0
2029 102 1 19.0779 3.59488 8.35932 0 0 0
1836 92 2 25.0792 6.54952 8.19408 0 0 0
1838 92 2 25.2145 7.23523 7.84485 0 0 0
1839 92 2 25.933 7.74736 8.04044 0 0 0
1086 55 1 19.8381 8.18674 8.1494 0 0 0
1088 55 1 19.6714 8.59415 8.28102 0 0 0
38 2 2 24.5203 8.60985 8.0467 0 0 0
35 2 2 24.2693 9.24112 8.01359 0 0 0
37 2 2 24.3154 9.57545 8.08699 0 0 0
39 2 2 25.6007 9.39335 8.163 0 0 0
196 10 2 4.46511 10.3718 8.03311 0 0 0
189 10 1 3.69751 11.0537 8.2177 0 0 0
199 10 2 4.90783 10.7873 8.07397 0 0 0
197 10 2 4.81314 11.0063 8.43399 0 0 0
844 43 1 9.13624 10.7992 8.33543 0 0 0
328 17 1 18.4859 11.3037 8.09575 0 0 0
327 17 1 19.3732 11.3431 7.83457 0 0 0
2409 121 1 25.5331 11.9902 7.923 0 0 0
1914 96 2 6.53137 13.222 8.29645 0 0 0
2405 121 1 28.1826 13.6292 8.09763 0 0 0
1913 96 2 6.63718 14.0874 8.08549 0 0 0
2413 121 2 24.5866 13.9438 8.1682 0 0 0
2416 121 2 25.3815 14.3172 8.46915 0 0 0
2404 121 1 29.1893 13.7114 7.88865 0 0 0
2094 105 2 7.11529 0.292155 8.62436 0 0 0
2098 105 2 5.64976 1.0104 9.07569 0 0 0
2097 105 2 6.53783 1.09855 8.62206 0 0 0
1309 66 1 21.6034 0.880556 8.49472 0 0 0
58 3 2 0.337881 1.44764 8.72476 0 0 0
2099 105 2 6.08207 1.82973 9.12914 0 0 0
2039 102 2 16.2423 1.39176 8.93848 0 0 0
1307 66 1 21.1443 1.3464 8.72245 0 0 0
1308 66 1 22.0103 1.77993 8.87595 0 0 0
59 3 2 0.780673 2.35614 8.64274 0 0 0
2441 123 1 23.9819 2.21534 8.77229 0 0 0
1835 92 2 24.5406 5.78862 8.60034 0 0 0
1085 55 1 19.4227 8.825 8.68442 0 0 0
194 10 2 3.89645 9.64669 8.56979 0 0 0
40 2 2 25.018 9.67565 8.9005 0 0 0
198 10 2 5.42616 10.0447 8.61914 0 0 0
845 43 1 9.01892 11.503 9.00458 0 0 0
1918 96 2 7.16782 12.0662 8.81243 0 0 0
329 17 1 18.1873 12.1316 8.90783 0 0 0
1915 96 2 7.08781 12.7114 8.98894 0 0 0
2414 121 2 25.3919 13.5641 8.88433 0 0 0
2297 115 2 24.2648 13.7177 9.11245 0 0 0
2415 121 2 26.2882 13.6962 8.56555 0 0 0
2402 121 1 0.112445 14.9696 8.59931 0 0 0
1901 96 1 6.18565 14.5195 8.91303 0 0 0
56 3 2 29.7201 0.432572 9.17005 0 0 0
55 3 2 0.509465 0.836862 9.29571 0 0 0
57 3 2 0.706064 0.78626 9.18103 0 0 0
54 3 2 1.39236 0.815384 9.41467 0 0 0
2100 105 2 5.1508 1.30302 9.38602 0 0 0
2040 102 2 16.7508 0.920595 9.74221 0 0 0
2035 102 2 18.2074 1.65315 9.34276 0 0 0
1306 66 1 20.7101 1.96766 9.36541 0 0 0
2442 123 1 24.9615 2.47516 9.13938 0 0 0
1302 66 1 20.7403 3.20917 9.34419 0 0 0
1301 66 1 20.7653 4.25083 9.50589 0 0 0
1833 92 2 24.5831 5.24064 9.73871 0 0 0
1834 92 2 24.8834 6.15262 9.43593 0 0 0
1821 92 1 23.8691 7.10228 9.52551 0 0 0
1700 85 2 22.2237 7.56485 9.60448 0 0 0
1087 55 1 19.7427 7.96166 9.18676 0 0 0
1084 55 1 19.5939 8.11684 9.3035 0 0 0
1699 85 2 22.2299 8.60333 9.74022 0 0 0
360 18 2 2.61563 9.8818 9.78092 0 0 0
356 18 2 3.05226 10.9561 9.46413 0 0 0
846 43 1 9.69763 10.6862 9.43483 0 0 0
1917 96 2 7.95403 11.4837 9.39019 0 0 0
1916 96 2 7.20406 12.0752 9.65198 0 0 0
2294 115 2 22.9 12.091 9.72889 0 0 0
2295 115 2 23.9124 12.0521 9.51697 0 0 0
2296 115 2 23.8116 12.9653 9.5549 0 0 0
1902 96 1 6.7125 14.6639 9.73252 0 0 0
1909 96 1 7.64879 14.4062 9.17327 0 0 0
2298 115 2 24.3066 14.7189 9.18935 0 0 0
46 3 1 27.4643 0.159512 10.2022 0 0 0
2038 102 2 16.3938 0.942864 9.90039 0 0 0
2037 102 2 17.4128 0.720258 9.94104 0 0 0
2036 102 2 18.3177 0.90027 10.0455 0 0 0
1305 66 1 20.3824 1.02679 9.88183 0 0 0
2160 108 2 27.056 1.30331 10.4012 0 0 0
1304 66 1 20.2857 1.90813 10.3688 0 0 0
2034 102 2 18.5828 2.07512 10.1411 0 0 0
2033 102 2 18.2385 2.92304 9.86489 0 0 0
133 7 2 8.45547 6.38671 10.3317 0 0 0
1822 92 1 23.2317 6.35721 9.82432 0 0 0
1829 92 1 24.9566 6.60439 10.3204 0 0 0
1828 92 1 24.5968 7.61449 9.95196 0 0 0
1698 85 2 22.9988 8.16546 9.97874 0 0 0
358 18 2 2.70902 9.3136 9.85632 0 0 0
357 18 2 2.93471 10.3689 10.0976 0 0 0
847 43 1 9.04333 10.5986 10.205 0 0 0
1908 96 1 8.11074 14.0735 9.94199 0 0 0
135 7 2 8.11353 6.33402 11.0539 0 0 0
2148 108 1 29.0285 6.15206 10.8536 0 0 0
1827 92 1 24.4801 7.5787 10.8608 0 0 0
1081 55 1 19.8104 8.35831 10.9289 0 0 0
1697 85 2 22.3292 8.14378 10.7182 0 0 0
1082 55 1 19.1103 9.03528 10.8201 0 0 0
359 18 2 2.74484 9.69647 10.7752 0 0 0
175 9 2 16.2365 9.37054 10.7767 0 0 0
848 43 1 9.85451 10.5272 10.6921 0 0 0
169 9 1 15.9065 11.069 10.4626 0 0 0
355 18 2 2.79456 11.0985 10.4379 0 0 0
2293 115 2 22.9524 11.4374 10.556 0 0 0
1907 96 1 8.15383 14.4143 10.9048 0 0 0
1266 64 1 3.14842 0.784412 11.413 0 0 0
1477 74 2 11.9317 1.07386 11.5987 0 0 0
1478 74 2 11.3652 1.64439 11.6306 0 0 0
1479 74 2 12.4228 1.91682 11.5221 0 0 0
2159 108 2 27.0576 1.99033 11.2005 0 0 0
1480 74 2 12.7761 2.78489 11.6098 0 0 0
2147 108 1 29.0347 5.08753 11.2279 0 0 0
2149 108 1 28.8427 5.29343 11.6048 0 0 0
2144 108 1 0.327917 6.38586 11.5215 0 0 0
136 7 2 6.99669 6.21188 11.2233 0 0 0
134 7 2 9.27996 6.36557 11.1097 0 0 0
1825 92 1 23.849 6.35717 11.675 0 0 0
2146 108 1 28.9963 6.25637 11.2924 0 0 0
138 7 2 6.32556 7.00792 11.7341 0 0 0
1824 92 1 23.1632 7.16787 11.4348 0 0 0
2145 108 1 29.4633 7.02297 11.2577 0 0 0
137 7 2 7.04334 7.25806 11.2244 0 0 0
1696 85 2 21.6362 8.40125 11.2981 0 0 0
178 9 2 15.8493 9.31722 11.192 0 0 0
176 9 2 15.734 10.2451 11.1166 0 0 0
174 9 2 16.7167 9.94318 11.7174 0 0 0
173 9 2 17.228 10.5265 11.4451 0 0 0
354 18 2 2.00824 11.3421 11.1668 0 0 0
353 18 2 3.03969 11.4041 11.1059 0 0 0
849 43 1 10.0608 11.1759 11.6729 0 0 0
168 9 1 15.9898 11.5968 11.4809 0 0 0
2133 107 2 29.0381 14.1472 11.2733 0 0 0
1268 64 1 1.79316 1.15252 12.1692 0 0 0
1267 64 1 2.58988 1.06596 12.0237 0 0 0
2157 108 2 26.705 2.43323 12.0914 0 0 0
2158 108 2 27.6654 2.4413 12.0223 0 0 0
129 7 1 8.97002 5.32265 11.8912 0 0 0
1689 85 1 20.2855 6.48888 11.8681 0 0 0
821 42 1 27.2544 6.36367 12.1512 0 0 0
1826 92 1 24.4106 6.94856 11.8148 0 0 0
140 7 2 5.53365 7.96463 12.0727 0 0 0
139 7 2 6.36031 7.96519 12.1051 0 0 0
180 9 2 15.3151 8.12353 12.1717 0 0 0
179 9 2 16.284 8.64918 11.8633 0 0 0
1694 85 2 20.4671 8.76488 11.8313 0 0 0
827 42 1 28.5687 8.78505 12.2154 0 0 0
177 9 2 15.3802 9.63482 11.8451 0 0 0
1695 85 2 21.4223 9.30755 11.7756 0 0 0
2285 115 1 21.8094 9.94612 12.2697 0 0 0
2288 115 1 23.0897 11.0899 12.2625 0 0 0
167 9 1 15.119 11.8594 11.8332 0 0 0
2101 106 1 18.8694 12.6987 12.2659 0 0 0
2120 106 2 20.4925 13.6738 12.0175 0 0 0
2134 107 2 29.2403 13.4436 12.1059 0 0 0
2118 106 2 20.7764 13.946 12.3806 0 0 0
114 6 2 23.9193 14.6232 12.1718 0 0 0
2127 107 1 28.892 14.714 12.259 0 0 0
1269 64 1 1.67548 0.499435 12.5984 0 0 0
1469 74 1 10.3958 0.0207296 12.5355 0 0 0
1476 74 2 11.7207 1.14789 12.5264 0 0 0
2155 108 2 27.7097 1.90214 12.5498 0 0 0
1475 74 2 11.8366 2.14149 12.9262 0 0 0
2154 108 2 28.62 2.38449 12.807 0 0 0
128 7 1 9.00821 5.07331 12.9312 0 0 0
121 7 1 7.14697 6.5094 12.7578 0 0 0
1688 85 1 20.2665 6.19123 12.7423 0 0 0
822 42 1 27.971 5.91623 12.7365 0 0 0
824 42 1 28.5229 5.98946 12.6584 0 0 0
122 7 1 8.14568 7.11896 12.6621 0 0 0
1685 85 1 17.9952 6.90286 12.4399 0 0 0
1686 85 1 19.0211 6.90696 12.6289 0 0 0
825 42 1 28.2336 6.96115 12.4126 0 0 0
2142 108 1 0.126212 7.46427 12.8558 0 0 0
1499 75 2 4.02998 7.45397 12.4363 0 0 0
1693 85 2 20.8331 8.22694 12.4071 0 0 0
826 42 1 28.5263 8.03641 12.6974 0 0 0
828 42 1 28.7681 8.05437 12.744 0 0 0
162 9 1 18.0206 9.89867 13.0375 0 0 0
2286 115 1 21.4194 10.4072 13.0129 0 0 0
166 9 1 15.4923 11.3587 12.6255 0 0 0
349 18 1 3.53852 12.588 12.7672 0 0 0
2135 107 2 0.0797532 13.747 12.6221 0 0 0
2136 107 2 1.04564 13.9849 12.7728 0 0 0
2119 106 2 19.9449 14.3139 12.6325 0 0 0
2117 106 2 21.3484 14.464 12.8739 0 0 0
1473 74 2 10.4591 2.23104 13.3895 0 0 0
2153 108 2 29.031 2.45574 13.6949 0 0 0
1482 75 1 3.26348 3.2149 13.6628 0 0 0
2156 108 2 27.2308 2.71658 13.0931 0 0 0
1495 75 2 1.4318 5.56853 13.2111 0 0 0
127 7 1 9.51862 5.68088 13.6782 0 0 0
1496 75 2 2.289 6.04383 13.055 0 0 0
1687 85 1 19.4142 6.04001 13.1784 0 0 0
1497 75 2 3.1005 6.58065 13.3363 0 0 0
1498 75 2 3.90679 7.15304 13.2839 0 0 0
1500 75 2 4.36442 6.89229 13.1516 0 0 0
126 7 1 9.75473 6.54492 13.4769 0 0 0
1684 85 1 18.1719 6.86725 13.2849 0 0 0
1593 80 2 3.12108 8.74431 13.5731 0 0 0
1597 80 2 5.28923 9.06311 13.3824 0 0 0
161 9 1 17.8619 8.91228 13.2831 0 0 0
829 42 1 28.8407 8.87026 13.5457 0 0 0
2284 115 1 22.0154 9.89564 13.2829 0 0 0
833 42 2 28.8204 10.4044 13.6668 0 0 0
164 9 1 16.5072 10.9379 13.2142 0 0 0
2289 115 1 22.5334 10.7563 13.1579 0 0 0
2287 115 1 22.2009 10.9095 13.0496 0 0 0
348 18 1 3.66071 11.5927 13.13 0 0 0
346 18 1 3.39236 11.5046 13.5019 0 0 0
165 9 1 15.6583 11.2624 13.418 0 0 0
860 43 2 8.10647 12.0695 13.5175 0 0 0
858 43 2 8.31087 12.153 13.5073 0 0 0
853 43 2 10.0832 12.169 13.1092 0 0 0
2102 106 1 18.3534 12.3727 13.2826 0 0 0
857 43 2 8.98707 12.8252 13.116 0 0 0
2104 106 1 18.1566 12.5902 13.2627 0 0 0
2137 107 2 0.348129 13.6173 13.2701 0 0 0
856 43 2 9.6068 13.6252 13.6925 0 0 0
2138 107 2 1.00459 14.4081 13.2957 0 0 0
2139 107 2 2.08423 14.4577 13.5039 0 0 0
2116 106 2 20.6666 14.5767 13.6426 0 0 0
1481 75 1 3.85681 2.58072 14.0586 0 0 0
1474 74 2 11.3407 2.04543 13.7482 0 0 0
1484 75 1 2.3653 3.16225 14.3252 0 0 0
1489 75 1 2.76483 4.70709 14.2146 0 0 0
1649 83 1 26.3065 4.63977 14.1906 0 0 0
1494 75 2 2.43663 5.665 13.8519 0 0 0
1682 85 1 16.5713 5.9919 13.9122 0 0 0
124 7 1 8.37411 6.74672 14.151 0 0 0
125 7 1 9.31045 7.04673 14.0206 0 0 0
2141 108 1 29.885 7.05461 13.7723 0 0 0
1584 80 1 0.66023 8.40249 14.0053 0 0 0
1594 80 2 3.86277 8.74597 14.0784 0 0 0
1595 80 2 4.87716 9.00874 14.2029 0 0 0
1598 80 2 5.8797 8.53828 13.9371 0 0 0
1587 80 1 1.54168 9.63377 13.8592 0 0 0
1596 80 2 4.48034 9.71271 13.856 0 0 0
1599 80 2 5.6932 9.59671 14.1004 0 0 0
1588 80 1 2.50905 10.0506 13.8159 0 0 0
347 18 1 4.03353 11.0351 14.0159 0 0 0
2261 114 1 5.57648 10.7492 13.8073 0 0 0
2262 114 1 6.05412 11.4461 13.8873 0 0 0
859 43 2 8.37831 11.496 14.1975 0 0 0
854 43 2 10.408 12.3474 14.1354 0 0 0
2105 106 1 18.3994 12.2604 14.2232 0 0 0
855 43 2 9.42738 12.6002 13.8674 0 0 0
2106 106 1 17.9278 12.8964 13.8694 0 0 0
2264 114 1 5.02925 13.1027 13.9219 0 0 0
2140 107 2 2.4629 13.7228 13.8899 0 0 0
2107 106 1 17.6662 13.8866 14.2279 0 0 0
2114 106 2 20.161 14.5123 14.2275 0 0 0
904 46 1 16.008 2.44333 14.9369 0 0 0
1485 75 1 2.14051 3.99424 14.8516 0 0 0
1488 75 1 1.99692 4.1973 14.5343 0 0 0
1641 83 1 22.7187 5.16358 14.6909 0 0 0
1642 83 1 23.6166 4.57904 14.9863 0 0 0
1646 83 1 24.4981 4.91864 14.9587 0 0 0
1648 83 1 25.2824 4.80658 14.6864 0 0 0
1493 75 2 2.20076 5.863 14.8589 0 0 0
1681 85 1 16.347 5.82861 14.8536 0 0 0
1647 83 1 25.0372 5.67108 14.7114 0 0 0
1586 80 1 0.881042 9.54196 14.5881 0 0 0
835 42 2 28.3028 9.40772 14.7477 0 0 0
1589 80 1 1.79283 10.3224 14.4378 0 0 0
1600 80 2 6.4491 9.79446 14.4595 0 0 0
2282 115 1 20.7677 9.82331 14.5217 0 0 0
834 42 2 28.943 10.1906 14.566 0 0 0
341 18 1 3.5949 11.3639 14.9311 0 0 0
344 18 1 2.76698 11.9621 14.8311 0 0 0
342 18 1 3.16353 12.3009 14.618 0 0 0
345 18 1 3.57201 12.0809 14.3637 0 0 0
2265 114 1 4.38183 13.0889 14.6199 0 0 0
2115 106 2 20.9015 14.0184 14.3929 0 0 0
2108 106 1 17.6429 14.8109 14.5964 0 0 0
1784 90 1 2.65336 0.215845 15.3939 0 0 0
905 46 1 16.7345 2.90167 15.227 0 0 0
906 46 1 17.5598 3.72363 15.441 0 0 0
1486 75 1 1.29282 4.30525 15.0613 0 0 0
902 46 1 16.0562 4.42817 15.2034 0 0 0
1654 83 2 27.5963 4.45208 15.0142 0 0 0
1645 83 1 23.3497 4.65801 15.1254 0 0 0
1653 83 2 26.6851 4.8902 15.1637 0 0 0
919 46 2 18.1448 6.37621 15.1937 0 0 0
918 46 2 19.1539 6.15566 15.0189 0 0 0
917 46 2 19.8314 6.48345 15.5946 0 0 0
920 46 2 18.1969 7.396 15.0005 0 0 0
1585 80 1 0.35488 8.78606 15.032 0 0 0
2281 115 1 20.3796 8.90299 15.1836 0 0 0
1582 80 1 29.823 8.94538 15.0423 0 0 0
836 42 2 27.3463 9.31283 15.5179 0 0 0
2266 114 1 4.35765 12.4229 15.2331 0 0 0
2268 114 1 3.30052 13.1556 15.6516 0 0 0
2378 119 2 25.1403 13.373 15.488 0 0 0
2269 114 1 3.96447 14.01 15.554 0 0 0
2113 106 2 20.9712 14.602 15.1348 0 0 0
1141 58 1 0.136196 0.369766 15.8986 0 0 0
1107 56 1 0.684369 2.68282 16.2019 0 0 0
908 46 1 18.2846 3.1203 16.2829 0 0 0
1198 60 2 25.1963 3.13186 16.1885 0 0 0
1200 60 2 25.1513 3.16707 15.8439 0 0 0
1659 83 2 28.5709 2.94366 16.0583 0 0 0
1487 75 1 1.94209 3.89798 15.6537 0 0 0
909 46 1 18.6781 3.99092 16.0675 0 0 0
1655 83 2 27.4496 4.33357 16.0222 0 0 0
901 46 1 15.8996 4.87861 16.1088 0 0 0
916 46 2 20.0638 5.63009 16.1384 0 0 0
1644 83 1 22.9053 5.2928 15.7502 0 0 0
1581 80 1 29.8787 8.40498 15.8162 0 0 0
837 42 2 26.6887 9.51223 16.0723 0 0 0
840 42 2 24.7102 10.9411 16.2256 0 0 0
1165 59 1 7.00538 11.8187 16.1354 0 0 0
1164 59 1 7.90562 12.3754 16.1677 0 0 0
2267 114 1 4.20405 12.612 15.9962 0 0 0
2376 119 2 24.7695 12.8687 16.2148 0 0 0
1179 59 2 5.46106 13.4934 16.1316 0 0 0
2377 119 2 24.1478 13.6979 16.1589 0 0 0
1178 59 2 5.16269 14.5139 15.8677 0 0 0
1177 59 2 6.16874 14.683 16.2707 0 0 0
1196 60 2 23.9481 2.36001 16.539 0 0 0
1197 60 2 25.0534 2.267 16.7627 0 0 0
1199 60 2 25.2004 2.37064 16.8341 0 0 0
1108 56 1 1.45902 3.11 16.3496 0 0 0
1657 83 2 27.0141 2.86169 16.4498 0 0 0
1658 83 2 28.1227 3.09433 16.6972 0 0 0
1106 56 1 1.03366 3.43263 16.5303 0 0 0
907 46 1 17.8771 3.65746 16.4104 0 0 0
1656 83 2 27.2491 3.8527 16.7314 0 0 0
1660 83 2 29.1384 3.297 16.4572 0 0 0
1109 56 1 1.5271 4.28703 16.7266 0 0 0
839 42 2 25.6927 10.9908 16.3057 0 0 0
838 42 2 26.6545 10.5176 16.5064 0 0 0
2379 119 2 25.4311 13.5257 16.4972 0 0 0
1180 59 2 6.35404 14.0246 16.353 0 0 0
2380 119 2 25.3544 14.6787 16.3613 0 0 0
1195 60 2 23.2981 2.38763 17.191 0 0 0
1105 56 1 1.72712 3.12424 17.2798 0 0 0
1942 98 1 18.061 5.65391 17.4008 0 0 0
914 46 2 19.916 5.34345 16.9813 0 0 0
1941 98 1 17.7405 6.49277 17.2095 0 0 0
915 46 2 20.5877 6.07724 17.2121 0 0 0
435 22 2 21.8891 5.94952 17.4537 0 0 0
1166 59 1 7.15321 11.7965 17.1591 0 0 0
1161 59 1 5.48985 12.3926 17.2561 0 0 0
1162 59 1 6.34175 12.9084 17.2229 0 0 0
2375 119 2 24.6691 13.2276 17.0217 0 0 0
1174 59 2 5.47648 14.0717 17.1848 0 0 0
2367 119 1 26.2363 14.0764 17.0256 0 0 0
1173 59 2 6.18206 14.6248 17.3834 0 0 0
1175 59 2 6.19113 14.711 17.4899 0 0 0
1101 56 1 1.87974 1.75097 18.1086 0 0 0
1102 56 1 1.99174 2.58078 18.0573 0 0 0
1573 79 2 9.87241 2.27812 18.1356 0 0 0
1194 60 2 23.6776 2.11987 18.1141 0 0 0
1104 56 1 1.31342 2.95154 18.0495 0 0 0
1574 79 2 9.82252 3.19934 17.9142 0 0 0
1193 60 2 23.7307 3.20202 18.2514 0 0 0
1944 98 1 16.7022 4.43343 17.9635 0 0 0
913 46 2 20.0915 4.56969 17.9315 0 0 0
1113 56 2 2.84905 5.52807 17.6311 0 0 0
1115 56 2 3.821 6.65854 17.8407 0 0 0
437 22 2 22.4555 6.92477 18.1554 0 0 0
1120 56 2 5.54737 7.28314 18.1375 0 0 0
2205 111 1 20.0916 8.43162 18.1541 0 0 0
2208 111 1 19.8028 9.0381 18.0482 0 0 0
1167 59 1 7.18728 12.2437 18.0574 0 0 0
2374 119 2 25.3999 13.2763 17.8574 0 0 0
1169 59 1 7.49261 13.7181 17.9796 0 0 0
2368 119 1 26.9538 13.7881 17.8882 0 0 0
2279 114 2 0.526791 14.855 17.8079 0 0 0
2366 119 1 26.9393 14.6471 17.7877 0 0 0
1575 79 2 9.48645 2.63352 18.664 0 0 0
1945 98 1 16.7038 5.1514 18.5994 0 0 0
784 40 1 26.9065 5.09585 18.6286 0 0 0
434 22 2 22.1193 5.62269 18.3626 0 0 0
436 22 2 22.0478 5.80174 18.4996 0 0 0
1114 56 2 2.91855 6.50389 18.2836 0 0 0
1116 56 2 4.17724 6.69524 18.7396 0 0 0
1117 56 2 4.93406 7.11928 18.4516 0 0 0
2206 111 1 19.9954 7.45087 18.5162 0 0 0
2204 111 1 19.8264 7.46259 18.6891 0 0 0
1119 56 2 5.79998 8.00548 18.5705 0 0 0
2207 111 1 20.1559 8.47719 18.8312 0 0 0
795 40 2 26.2132 8.7613 18.6999 0 0 0
798 40 2 26.6979 9.10422 18.3295 0 0 0
2209 111 1 20.0914 9.65219 18.8382 0 0 0
796 40 2 25.3317 9.42629 18.7272 0 0 0
1168 59 1 7.93452 13.0397 18.3876 0 0 0
2373 119 2 24.5868 13.3685 18.4703 0 0 0
2369 119 1 26.7443 13.2425 18.7651 0 0 0
2280 114 2 0.0230085 14.3962 18.5702 0 0 0
2275 114 2 2.78202 14.8026 18.4818 0 0 0
1713 86 2 3.18635 0.39294 19.2126 0 0 0
2398 120 2 21.292 0.757666 19.5563 0 0 0
1569 79 1 12.1497 1.86935 19.0051 0 0 0
2400 120 2 22.6468 1.44443 19.3007 0 0 0
1567 79 1 12.9786 2.73006 19.4125 0 0 0
781 40 1 28.3557 4.37137 19.1938 0 0 0
1957 98 2 12.1601 5.17057 18.9957 0 0 0
428 22 1 22.8836 4.65853 19.4503 0 0 0
1959 98 2 12.0529 5.5779 19.0302 0 0 0
1955 98 2 13.5238 5.30038 19.3327 0 0 0
1946 98 1 16.9313 5.60266 19.438 0 0 0
433 22 2 21.6839 5.22534 19.3122 0 0 0
785 40 1 26.6617 5.44169 19.46 0 0 0
1960 98 2 11.5195 5.95888 19.5211 0 0 0
1954 98 2 13.6862 6.27592 19.1764 0 0 0
1947 98 1 16.2535 6.26446 19.3255 0 0 0
1118 56 2 5.21139 7.47823 19.1078 0 0 0
438 22 2 21.8206 7.29204 18.9522 0 0 0
794 40 2 25.1024 8.57004 19.0561 0 0 0
799 40 2 26.8252 9.22389 19.192 0 0 0
2215 111 2 21.8341 10.1388 19.3178 0 0 0
2217 111 2 22.6068 10.0651 19.5422 0 0 0
797 40 2 26.3436 9.89829 18.9582 0 0 0
2218 111 2 21.8279 10.7776 19.5462 0 0 0
1346 68 1 21.9438 12.8324 19.2723 0 0 0
1345 68 1 21.2302 13.3013 19.198 0 0 0
1347 68 1 22.6064 13.6476 19.4278 0 0 0
2276 114 2 2.03718 14.8241 19.0947 0 0 0
1348 68 1 22.2589 14.565 19.3192 0 0 0
1715 86 2 2.08059 0.0606457 19.7787 0 0 0
2393 120 2 19.2539 0.0632871 19.7647 0 0 0
2397 120 2 20.2066 0.839979 19.6148 0 0 0
2399 120 2 22.2359 1.11351 20.1032 0 0 0
1568 79 1 12.8756 2.00826 19.8405 0 0 0
1576 79 2 9.1601 2.68712 19.7428 0 0 0
1566 79 1 13.4129 3.6058 19.5704 0 0 0
1565 79 1 13.4579 4.50033 20.0436 0 0 0
782 40 1 27.4498 4.10741 19.7859 0 0 0
1956 98 2 12.7455 4.80139 19.5662 0 0 0
786 40 1 25.6844 5.10805 19.6219 0 0 0
1958 98 2 12.4351 5.28334 19.9608 0 0 0
1541 78 1 21.1232 6.16551 19.868 0 0 0
1953 98 2 13.8773 6.97602 19.8626 0 0 0
1948 98 1 16.4591 6.77742 19.9503 0 0 0
439 22 2 21.7701 7.76958 19.8142 0 0 0
2201 111 1 19.4082 8.24214 20.2113 0 0 0
2202 111 1 20.6309 8.28567 20.1111 0 0 0
793 40 2 24.6745 8.27042 19.8914 0 0 0
440 22 2 22.1004 8.75894 19.5701 0 0 0
800 40 2 26.1433 8.99273 19.6419 0 0 0
2213 111 2 20.9466 9.58878 19.9365 0 0 0
2219 111 2 22.457 11.3265 19.7284 0 0 0
2220 111 2 23.0175 12.2015 20.0014 0 0 0
1342 68 1 20.2835 13.483 19.5819 0 0 0
1716 86 2 1.19586 0.587776 20.3447 0 0 0
2396 120 2 20.4426 0.287427 20.4107 0 0 0
1717 86 2 0.292284 0.926044 20.4719 0 0 0
1707 86 1 2.39032 0.912305 20.7943 0 0 0
1718 86 2 1.09443 1.59611 20.6268 0 0 0
1720 86 2 0.6902 1.83732 20.547 0 0 0
1709 86 1 3.4503 1.86426 20.2982 0 0 0
1577 79 2 9.89235 2.46586 20.497 0 0 0
1189 60 1 23.0698 3.08162 20.3659 0 0 0
1701 86 1 3.70251 3.82269 20.711 0 0 0
1702 86 1 4.49891 3.44588 20.2584 0 0 0
1564 79 1 13.463 3.8474 20.8663 0 0 0
1188 60 1 23.9018 3.70298 20.3719 0 0 0
1184 60 1 25.1793 3.66813 20.6381 0 0 0
427 22 1 22.4 4.50001 20.2823 0 0 0
429 22 1 22.958 3.99371 20.3175 0 0 0
426 22 1 21.6274 4.92148 20.7175 0 0 0
787 40 1 26.3416 4.67195 20.2437 0 0 0
1949 98 1 15.7381 6.45082 20.6805 0 0 0
1544 78 1 21.4021 5.9728 20.7861 0 0 0
1542 78 1 21.3156 6.7781 20.5982 0 0 0
2214 111 2 21.9319 9.91828 20.2877 0 0 0
2216 111 2 22.0744 9.97929 20.3464 0 0 0
1341 68 1 20.6242 13.5608 20.5671 0 0 0