LAMMPS data file via write_data, version 29 Oct 2020, timestep = 35000

3431 atoms
3 atom types
48 bonds
3 bond types

0.0 10.0 xlo xhi
0.0 10.0 ylo yhi
0.0 10.0 zlo zhi

Masses

1 1
2 1
3 1

Pair Coeffs # dpd

1 25 1
2 25 1
3 25 1

Bond Coeffs # harmonic

1 4 1
2 4 1
3 4 1

Atoms # bond

1171 1123 3 0.05001639125723482 0.6120288445941509 0.397958659838196 6 -2 2
2019 1971 3 0.67389164412903 0.1775657076548716 0.2052147991571436 2 -1 0
26 4 2 1.3139529837437407 0.6275052668444496 0.2003468066114646 2 1 3
1905 1857 3 1.9694420607512013 0.04793627249392142 0.06032208822092942 5 5 2
27 4 2 1.5897548996122706 0.4870795322693798 0.34088453338895536 2 1 3
3336 3288 3 3.3667073497128457 0.4636877157527721 0.25191557512776486 5 9 5
141 93 3 4.346027908588639 0.5423515725664197 0.29224636745102356 -1 4 -1
1873 1825 3 5.11628701948129 0.5761485172667032 0.3424183454789136 1 -4 -1
419 371 3 5.517424325056137 0.31154709514757073 0.07933556784083962 2 -1 0
2780 2732 3 7.425407939926109 0.40391161365934447 0.15489864712854967 -3 -2 2
1449 1401 3 8.520730584000898 0.028514968609278754 0.5133888984350811 3 5 -6
596 548 3 8.049261039121614 0.44894510784649244 0.01815314799270116 0 3 3
2432 2384 3 8.030658510166084 0.0975384310601319 0.021884062477216304 -2 1 4
3356 3308 3 9.021061989004643 0.4097875294843852 0.6138108045126806 -1 4 -3
3229 3181 3 9.68252140236131 0.7052879803514888 0.47834131823591663 0 -2 3
3070 3022 3 9.786687047915413 0.20362412565274274 0.18414797304311503 -3 -7 -3
1875 1827 3 0.3640033772026339 1.320984796694167 0.666650030943869 -3 2 7
502 454 3 0.48667697706601215 1.1517167203990053 0.2782016913269967 -1 0 -2
28 4 2 1.305385271348122 0.7484035957184553 0.4736872119667447 2 1 3
1137 1089 3 1.6034900734611912 1.3348222429536656 0.6939760820198212 -4 -1 -6
24 4 2 1.4331746244322268 0.7900239362760102 0.16008732208676074 2 1 3
1882 1834 3 2.596336660751375 0.9111751519633908 0.08900089606706421 -6 4 8
935 887 3 2.584718318545278 0.7287111610475987 0.6188639063550231 4 3 -1
2156 2108 3 2.3664118222362864 1.250977670720883 0.6904648618929976 -5 -2 -1
3152 3104 3 3.2917941575903638 1.0959881374086553 0.5943182047221576 2 3 1
608 560 3 3.407395978494337 0.9352220416411517 0.12557348020147885 -5 4 -1
723 675 3 3.964458645984156 1.0256328055454293 0.22662465428074138 3 -1 -3
3210 3162 3 5.278737371391674 0.8514357497751833 0.25276462918141057 2 5 -3
350 302 3 5.661823192986399 1.2445415220304608 0.6930935322020071 -2 -1 5
1409 1361 3 5.583216752874849 1.3996302104784566 0.25498144202833845 0 1 -4
188 140 3 5.952317371893015 0.9345810792239811 0.1862968322248409 -3 0 1
1439 1391 3 6.450813529404941 0.7806404785208185 0.6942077683811181 -1 0 2
2626 2578 3 7.062909084891632 0.9051162465714 0.16803808217806776 1 -5 2
2880 2832 3 7.641569753985441 0.878595860578091 0.6696189688351125 0 -1 11
2687 2639 3 7.971439384213382 1.2911512940846417 0.7067256609313093 2 2 2
255 207 3 7.49191121883797 0.7234334303647886 0.3583507874748895 2 -3 1
2920 2872 3 8.52581682251752 0.7623143524492165 0.4246985128664237 -3 -2 -2
3323 3275 3 9.22499778585394 1.1430784607388342 0.5392174321945817 1 3 7
2146 2098 3 8.678149024229185 1.3702892545025847 0.555299259766162 7 6 1
138 90 3 9.390773819028547 1.395246311600934 0.24937464959500333 -4 4 0
2108 2060 3 0.13039733293572447 1.8112327716567822 0.5194205232487505 -2 1 0
1030 982 3 0.8841189212247988 1.434186101462921 0.6062437378737583 3 3 5
1425 1377 3 1.4718611036077993 1.9214648323554488 0.15635451642605003 -1 1 3
2112 2064 3 2.0440357514069154 1.7101634470122231 0.22264501688472968 2 2 1
2775 2727 3 2.9595737482195195 1.972282412376729 0.688473274780918 3 0 -1
1933 1885 3 2.7306678638904742 1.6939527885593315 0.3557687670584457 2 1 3
2370 2322 3 3.8347997200425445 1.7230082963186941 0.503247559097539 0 -7 -2
2348 2300 3 4.449666789003723 2.095525489789219 0.2556308932665072 -4 0 8
1352 1304 3 5.216305952384896 1.875213822597656 0.2513001298595455 4 3 -2
2306 2258 3 6.460550388234412 1.5568040397963072 0.32293317368653524 1 -6 -3
2010 1962 3 6.446757636630218 1.794542758389885 0.6479532225514324 2 0 0
1029 981 3 7.453019736382887 1.8119665540574428 0.666128676027379 0 -4 5
3105 3057 3 7.37115297862526 2.133656389384309 0.09120702870623276 -1 -4 3
1123 1075 3 8.180988420095066 1.518628425765962 0.3379712673858392 -3 0 0
864 816 3 8.12862831329225 2.011584277439637 0.1150392181802263 -1 -4 1
283 235 3 8.816163289545512 1.7506238971634664 0.4372361925544619 0 -6 -4
1196 1148 3 9.508540786359413 1.9351891848691238 0.30556457255891306 0 3 -1
1089 1041 3 0.3442248215714529 2.1762358025110995 0.34220488686279155 0 1 4
1530 1482 3 0.9327245414150854 2.225486635707047 0.6729533637501794 -3 2 0
2982 2934 3 0.7736345201179277 2.5957338513991552 0.4052721132230304 2 -2 2
1238 1190 3 2.319451676922799 2.67371977041649 0.5526976149232612 1 1 -3
1281 1233 3 2.975793790297766 2.457745862501719 0.07956228986083827 1 0 0
3422 3374 3 3.5045809762575133 2.5497634021755093 0.33047228896927594 11 -1 -1
756 708 3 4.055693092660758 2.403282861019721 0.5127196981447395 0 -1 1
726 678 3 5.092166094368513 2.808844189074347 0.2050502811082127 -7 4 3
3035 2987 3 5.736417752664155 2.289921898764003 0.48348823093231225 -2 0 0
663 615 3 6.600023257415092 2.762785087279803 0.5209241892272938 -6 1 0
487 439 3 6.078379058226716 2.514848447393493 0.25494526494776143 3 -2 -1
2241 2193 3 7.0508923745831265 2.7920095525667263 0.35403473133576624 -2 -2 0
88 40 3 7.359593528269279 2.819300428772332 0.4768660297238191 1 1 -4
3144 3096 3 8.078327248441703 2.8433856307424037 0.34462444149973903 1 -2 1
1391 1343 3 8.919992014539128 2.777875652646826 0.39750839400273946 -3 -2 -5
294 246 3 8.693135728519069 2.83696559107322 0.07426358003023559 1 4 2
3351 3303 3 9.475800092710053 2.2531420986146644 0.207546094133335 6 3 0
3100 3052 3 0.8287188371711881 3.1648080831217635 0.6476498427203881 -2 2 2
1733 1685 3 1.1193157872411728 2.9953043343294 0.6814597881275974 4 0 -1
1529 1481 3 1.8932458957226956 3.020421318569997 0.45920588603917756 2 3 3
623 575 3 2.3700515605297166 3.5460345320382665 0.24696174677078503 0 1 6
2843 2795 3 3.5424975752449153 3.0534310565836824 0.14055240300443464 -3 -7 4
2682 2634 3 4.035554888796016 3.544089589201893 0.7123517822606112 0 0 -1
1237 1189 3 4.814873926997606 3.357780522967781 0.1920622692974941 0 3 -1
2822 2774 3 5.756125306387373 3.1260518169693814 0.22432802480647687 -1 -2 0
2318 2270 3 7.052132726377641 3.2248270296028774 0.5589693745598565 0 -6 3
2927 2879 3 8.10512738935669 3.346967563482583 0.3536856356399706 -5 2 -6
2726 2678 3 9.589296475285517 3.522005277359199 0.2824471580835134 2 -4 4
1928 1880 3 9.952633614036168 2.888486958028965 0.5900122182367445 -4 -6 0
543 495 3 0.14529340508729405 4.047332722033721 0.7000981351120614 5 2 0
2544 2496 3 0.14045608041912172 4.086386344617561 0.12487989906699862 -3 2 2
436 388 3 1.2594288525544304 3.6030987869246993 0.26249623061655003 -5 0 9
1671 1623 3 1.4782609704743008 3.759274672744206 0.6275953477192827 0 -6 -1
2524 2476 3 1.793287121273199 3.9771945251335654 0.062402091939416114 -2 1 3
878 830 3 2.7447126885585402 3.9994766083231372 0.6073560084909545 -3 4 4
3337 3289 3 3.640591165953403 3.9557511956989613 0.5658044156494625 0 0 -3
2850 2802 3 3.518358525635474 3.965584561351985 0.1489471413175662 -7 3 5
2399 2351 3 4.6650256779780355 4.275765620170021 0.48044231375799507 6 -5 1
2799 2751 3 4.285887778146973 4.164705358063022 0.05552197639513749 3 -3 -1
2323 2275 3 5.328920861448007 3.575331207300814 0.6274248553774435 -4 -2 0
2187 2139 3 5.927513630825367 4.280102697480191 0.4309605796355958 7 -3 1
1775 1727 3 5.43801976324212 3.9597491449813553 0.15001734344228543 -1 3 -2
835 787 3 6.2466311794726455 3.623529275062754 0.5919947756366233 -2 3 3
1943 1895 3 6.971508967591367 4.2264748672130095 0.6332749643442522 -4 5 1
1628 1580 3 6.91919964550859 3.76968984928196 0.21428950246219783 5 -5 2
384 336 3 7.445072884765462 3.6002018254825248 0.239163825616253 1 0 -3
2681 2633 3 7.9390937702090385 4.16592573258336 0.28386304456302275 -2 4 0
1152 1104 3 8.702884620920521 3.583638299014508 0.1706390092705429 -2 4 -4
2076 2028 3 8.881256486511646 3.9894337402161506 0.4293548532576411 -2 -1 -1
2243 2195 3 9.477537729352399 4.1841058446888955 0.15464057295717257 0 -2 -3
2118 2070 3 0.07762185999028298 4.714716179667089 0.6387887817354605 3 -1 3
358 310 3 0.6476118945629421 4.518837432385262 0.23324640405519137 4 0 -12
1599 1551 3 1.526961161243269 4.757918364814968 0.20942585163277133 -1 -5 -2
1722 1674 3 1.9438229314706765 4.407172403195051 0.1944458304805068 -1 -2 1
1381 1333 3 2.758444498360657 4.287782195866785 0.11393336019709818 2 -1 -1
531 483 3 2.7343953077715937 4.963181148172623 0.40173229353169826 3 3 2
2466 2418 3 3.3758794460280304 4.636000531863127 0.7034735456540063 -1 4 6
1289 1241 3 4.213201249145427 4.36893121822358 0.47094357245463864 -4 -5 -1
3394 3346 3 5.017249682550236 4.712034333131127 0.3648835802454224 -5 0 2
1327 1279 3 5.273959861195941 4.681857763163008 0.7073225757410784 0 0 -1
2202 2154 3 6.162920087858792 4.761809413293282 0.4267612145864807 -1 -3 -5
2103 2055 3 7.015706417887201 4.950799378967936 0.07935501738414984 -1 -4 1
1798 1750 3 7.441953487141616 4.700872644169866 0.5414951191006547 -2 0 1
3329 3281 3 8.595992025642563 4.570860344160585 0.3858937994122673 5 -1 2
1419 1371 3 9.143995187220128 4.659631849779099 0.5986796241468629 -6 1 -1
2811 2763 3 0.2564262190470544 0.5710121982840587 0.9370320895296169 2 1 1
680 632 3 0.20364598226349023 0.4329292564898567 1.2932899216963942 1 -4 2
2769 2721 3 1.2777716553554173 0.0837200786077242 1.3655265530537914 -1 -1 1
1484 1436 3 1.6681200520866728 0.5605199325535047 1.1148982016791245 -6 10 3
98 50 3 2.4383640307945926 0.3410274656301697 1.0983476864742165 0 -2 -3
1619 1571 3 3.177425745334144 0.23623279869924718 0.7458241350389185 -1 0 2
1161 1113 3 3.2660543934846604 0.007307891543925749 1.1571333214556048 -6 5 -1
844 796 3 3.831241243994904 0.6563302547930961 0.9588732822163688 5 1 10
771 723 3 4.034217121004189 0.027678308616303937 1.233395974225399 -4 3 -1
2854 2806 3 4.927235295563247 0.38018255149246355 1.1733906602184758 -1 0 -5
2605 2557 3 5.312493560314011 0.7100909032928586 1.3186898050983276 0 7 0
224 176 3 5.884827508425768 0.5970651574349284 0.9826643807186475 0 0 3
1236 1188 3 5.981097162443897 0.2608360181973472 0.8926577246386519 -3 1 0
1015 967 3 5.488971907104101 0.0855476643885732 1.210998523125039 -3 -5 4
3335 3287 3 6.889021468910379 0.4027108264182162 0.9023624789946301 2 4 7
3164 3116 3 7.2915362962532475 0.16755679695460696 1.22059800868043 -1 2 -3
2749 2701 3 7.929077881373907 0.615456887900473 1.3410872134605318 -3 0 -3
354 306 3 7.987179146540279 0.3463010749429741 0.861378256999545 -2 0 -1
1225 1177 3 8.530309118216522 0.07189329993936511 1.4052179188378673 -4 2 -5
420 372 3 9.186990698345673 0.09431197313548498 1.1155932793299532 0 1 -3
1421 1373 3 9.682341045329236 0.4977580045622317 1.3315394813774706 -5 5 6
859 811 3 0.6681826508515494 0.7651418518785482 1.1133039074187607 -5 0 7
3037 2989 3 1.5032462740633525 0.9643474823038707 1.3573455659744202 1 1 1
2163 2115 3 2.672520371073316 1.1225193973438337 0.9522000649088476 -3 -8 0
2805 2757 3 3.054006499190973 1.3341579529445686 1.3259047648599718 0 -1 -6
774 726 3 3.4278954922259155 1.1907941853540804 1.3541219241179367 -3 -1 3
3406 3358 3 4.379452464555201 0.7523669043735218 1.2401272130821697 -2 3 -1
2514 2466 3 4.706002391332271 1.1975164201689983 0.8237745032288224 0 -4 1
1914 1866 3 6.133217092388196 1.3648633191669595 1.2033152303487515 -4 3 2
1524 1476 3 6.720829066578592 1.3888960554334044 0.7516918234873488 2 0 -2
1266 1218 3 7.2276015867327565 1.0252045781621517 1.315265579295222 2 0 1
2027 1979 3 9.075123799036843 1.1835090603929306 1.251738303702781 1 6 -2
762 714 3 9.967499898344329 1.1481335147078617 0.7423110329909759 -5 3 -1
1322 1274 3 9.586924475314316 1.1091418083680258 1.341458041676899 0 -1 1
1698 1650 3 0.4873404487639801 1.5727871753613065 1.3951743726893828 5 -3 -1
2693 2645 3 0.9535862821233935 1.7024815674195082 1.0868073796891469 1 3 4
684 636 3 1.372630804477921 1.4872138097199958 1.0168440771894165 2 -4 -5
2005 1957 3 2.1188436058158486 1.9902346935189144 0.9046976836150616 2 -4 -6
1182 1134 3 3.425695615174067 2.0623853111765347 0.8026034015685998 -2 4 -2
3303 3255 3 4.035918457590641 1.4721922012451307 1.3648968412287996 0 3 1
1854 1806 3 4.375588617462924 1.7523643987826434 1.05990251851503 0 6 1
3095 3047 3 4.658243071865442 2.034871946791137 0.8402840722194264 1 1 -5
1983 1935 3 5.092405589132339 1.553232336445779 0.9471947270865728 -1 3 -2
722 674 3 5.96101637690861 1.9848668471717936 0.8979912887111601 1 3 -1
1143 1095 3 7.316628511345387 1.8417948487122637 1.3695951684577183 -4 5 1
315 267 3 6.993566838394423 2.0959526447042425 0.8183479542318831 4 1 -4
564 516 3 8.141633004670295 1.474222931353899 1.0485482172794622 0 4 1
2589 2541 3 9.329285431921031 1.8956090745523817 0.9895962858500481 -4 -1 -3
716 668 3 9.777919428580988 1.8920505110890171 1.2266467619085806 0 1 3
3300 3252 3 9.90806455041483 1.4912050129703995 1.0764179757601002 -3 -7 -1
789 741 3 0.5038021437390611 2.5822758324910366 1.2801394429285244 -3 1 -1
1670 1622 3 0.06483340155031855 2.5086620424081048 1.0790021814656545 3 3 4
3340 3292 3 0.8969321085789147 2.412429351523633 1.2196194912862641 5 4 -1
1191 1143 3 1.7103981959044172 2.760992157209278 0.8368599906326211 0 -5 -4
1662 1614 3 1.4771198946776094 2.245051691687144 0.7763915555073991 0 -5 4
339 291 3 2.6432784141370935 2.360194822591811 1.1603061205739613 -4 1 -3
3271 3223 3 2.5614740087949963 2.5362277768157657 1.4009848056381973 3 1 -2
107 59 3 3.4955104147223026 2.7999973802906966 1.2659098175744596 0 4 2
1495 1447 3 3.8516718432175177 2.3331358157638173 1.2020624388738603 -5 -4 0
2719 2671 3 4.883377047727104 2.535188373542004 0.771145213579059 0 -1 -2
2077 2029 3 5.389541692995695 2.492897453508901 1.2369814327799877 -2 -6 -1
3220 3172 3 6.295709516731743 2.341077968411707 0.8479896642765385 2 3 -1
2786 2738 3 7.153554434880682 2.710523264933876 1.088323030808032 0 1 2
1741 1693 3 7.774727280726959 2.497278064711255 0.8556299277112887 -2 6 -4
1971 1923 3 8.567652928091988 2.808667773492847 0.9802658989499667 4 3 -1
284 236 3 9.244109728699396 2.5561181126602985 1.1058514189983608 -2 0 -8
1505 1457 3 8.89846594014561 2.285794647604379 0.960668164812204 3 1 5
900 852 3 9.493156712591944 2.5688444140501816 1.4216219124930263 -1 -1 -6
1031 983 3 0.16898469558155266 3.4952162360443904 0.7758733187381768 -2 -1 -1
1056 1008 3 0.9380420051586851 3.392483000543613 1.4269937836643156 -2 4 3
1083 1035 3 1.2983813018033135 2.965945168638707 1.387995102019619 -1 2 2
259 211 3 2.2964969779784443 3.475225292582736 1.005183883206848 -4 3 -1
1446 1398 3 2.206567392875995 3.067767736383113 1.264780080363549 7 7 0
1279 1231 3 2.8608776567415823 3.3649014369607064 0.7247819763851416 -2 1 0
198 150 3 3.7823604323347255 3.1052756067411256 1.3099954432980647 0 2 2
1099 1051 3 4.284207219260088 2.8990083495836343 0.7709492500963194 1 6 -3
2926 2878 3 4.817782051469278 2.868422050495905 0.9759044021004554 2 1 2
204 156 3 5.436442222437132 3.3781081573124534 1.0371866105408352 -1 2 2
266 218 3 5.644716167646256 3.1198761807528235 1.3352661636425691 -4 0 6
3278 3230 3 6.483656032168183 2.9005211775458544 1.2780668162366378 2 2 3
927 879 3 6.171283913857129 3.0495791502125247 0.9045863971359942 -5 -3 -1
897 849 3 6.744883609968139 3.429366982898442 1.3315168532809578 0 -3 3
2121 2073 3 7.9010059368746575 3.1707384393366116 1.1391181771343568 2 -4 -6
1457 1409 3 8.552726465980784 3.1627712285316423 1.1939151190826125 -2 3 2
1024 976 3 9.057298850272977 3.51818149143237 0.8829644401648457 -4 -1 2
2555 2507 3 9.184703265202478 3.0821707802923184 1.3698427371456277 3 1 -3
2083 2035 3 9.582189877041424 2.9941254845171366 0.7220494374110488 1 -1 0
3273 3225 3 0.3348347501108372 3.6061576643317466 1.088809456754915 -1 1 0
3201 3153 3 0.3235532661927988 4.171577474745372 1.3356454174286545 2 -1 5
1989 1941 3 0.9802308948821161 4.104674963018952 0.8927132478743791 -1 -2 6
2303 2255 3 1.7178087177427726 4.276548093561588 0.999149749035342 -3 1 -1
525 477 3 1.5345282958548596 3.6062312018018448 1.0631400207186328 2 2 2
1555 1507 3 2.3089279485088556 3.8856245760580443 1.0715186971661652 -6 4 5
2389 2341 3 2.1790430716410407 3.755200932469763 1.2173478873437271 -2 0 -2
1558 1510 3 3.855367827249833 3.709025567327874 1.3235930345967777 1 7 5
3156 3108 3 3.3665821289168414 3.8440120558872306 1.243571424148192 1 4 -2
417 369 3 4.142971479370103 4.283354512399104 1.3683944862548088 -2 -4 3
2057 2009 3 5.167387146473477 4.074831822979184 1.2589024126967414 0 0 -2
2724 2676 3 4.682859506429407 3.57953859053002 0.7919616834943658 0 -2 0
2216 2168 3 5.5720685464011135 4.005210008044957 0.9263751741312074 1 -3 3
2111 2063 3 6.350987266674828 4.002092251978618 1.0322869684933589 -6 1 0
1488 1440 3 7.496835857377775 4.152387524981843 1.015765822560446 -5 1 1
1454 1406 3 7.610473139712534 3.5751418316945713 0.9060590242586559 -3 -2 -1
3182 3134 3 8.427286182942815 4.136165150576926 1.0740869541410156 -3 5 -6
1514 1466 3 9.634671034323143 4.065832538880622 0.79871476648655 0 5 6
410 362 3 9.351507023239536 3.9243188844426102 1.2250082207296846 2 2 3
3216 3168 3 0.16067480114651897 4.670454313668389 1.1928585162460381 -2 0 2
2178 2130 3 1.046085981609768 4.875650717858438 1.2730100552977974 3 -3 3
2627 2579 3 1.7048153959747567 4.714313917689984 1.0247971425077969 2 0 -1
2501 2453 3 2.324752416321156 4.553677581391533 0.7712981417369664 1 -1 -1
236 188 3 2.563128355206409 4.74799919555713 1.3147863859150455 3 5 3
1838 1790 3 3.3871273038845158 4.937896544354681 1.3031291194250045 1 0 -6
3194 3146 3 4.29023630894376 4.648238074153429 0.9403658075671881 7 4 0
2300 2252 3 6.063816081419351 4.343556832896853 1.3930670256883788 -4 6 4
2546 2498 3 6.187190654698637 4.9962682989127085 1.1507774593720268 -1 2 0
1230 1182 3 6.820679281738891 4.535272659383156 1.0574862716370117 -4 5 7
2142 2094 3 7.106979833313405 4.3721415382995135 1.0867376169277818 -3 0 0
2024 1976 3 7.894056252436762 4.903275255468417 0.8439645585542 -3 1 0
376 328 3 7.9516258208923976 4.619527278156693 1.182123589207823 0 3 4
1150 1102 3 9.018803016149068 4.586486452552575 1.26526103843523 1 -1 0
226 178 3 8.899815742194686 4.698263607761372 1.1345796766035068 2 -1 -2
727 679 3 0.4543208009069489 0.13747411979026353 1.950823884538402 -5 1 4
2937 2889 3 0.8765637373236811 0.6556402918852648 1.5294065316885312 5 2 3
2337 2289 3 1.5547923985862757 0.4004203224309538 1.8915827145086657 6 0 6
1287 1239 3 2.211911385142685 0.2827067105532943 1.6728068859124106 -3 5 -4
2523 2475 3 2.3926338231737527 0.6679957764164671 1.6019184401584448 4 -2 9
1605 1557 3 2.0052134462230664 0.440789738486472 2.090407564807838 -3 4 -1
1486 1438 3 3.2030677216014607 0.5715999835014756 1.4462902310758543 0 9 -2
1620 1572 3 3.765300491443076 0.21626174556746747 2.0787979270371615 1 -1 2
1727 1679 3 4.646208824240115 0.2453455277444485 2.0585177933354855 0 5 4
3328 3280 3 4.420877058147428 0.17620190410931552 1.7771668565005219 0 0 -7
2132 2084 3 5.13529860113137 0.059224070142052165 1.507313140386982 -5 -3 1
2960 2912 3 5.79025225938896 0.5125685173407333 2.012202366133628 4 4 0
3163 3115 3 6.346070685438096 0.22295810541508845 1.4573356934636519 2 -2 3
1783 1735 3 7.684544479668784 0.5571624560732122 2.12719196470448 1 3 3
1499 1451 3 8.254025261578672 0.6924891283372991 1.5950910051548353 -4 -1 -3
2639 2591 3 9.422665518344331 0.7142805337074953 1.9311739894686513 -4 -2 -4
1532 1484 3 9.715081545029397 0.12696559900899493 2.122352481771255 1 -5 7
1343 1295 3 0.27279459781184817 0.7827519281953383 2.0937582472894847 -2 4 2
1302 1254 3 0.16549858942819282 0.9657761250811941 1.5777238344816404 -2 -1 -7
822 774 3 0.6113508368431206 1.0552285133656323 2.039989438042253 4 1 -2
872 824 3 1.756593702018184 1.2799212694997735 1.8359690400914228 -3 0 1
2697 2649 3 2.041316430457385 1.4024908301556542 2.1150027913107317 1 -2 -4
933 885 3 2.899782897566702 1.1720780286166042 1.989415542795246 -3 0 3
2335 2287 3 3.7462807790599353 1.0463758068096127 1.738586061355632 -1 2 -1
865 817 3 3.510818170848957 1.1565367740653556 2.1156866807635977 -6 4 3
2933 2885 3 4.408979140073105 1.1898448329444984 1.7866016194999927 4 1 0
307 259 3 4.981061577545707 0.7916849736836881 1.8131987605224942 3 -1 6
2857 2809 3 5.474413057365655 1.1099770496165842 1.4811624553124623 -2 -2 -4
2611 2563 3 5.775012104370832 1.1339850154156625 2.142213262656011 0 -4 2
2476 2428 3 6.558072496410904 1.2178086651022486 1.6544788701357114 2 -4 3
240 192 3 7.253916808052123 0.8654746435227956 1.8388114032019012 -7 -6 3
2438 2390 3 7.7577771367656805 1.2420799096092112 1.5346037368190755 3 3 1
590 542 3 8.380430580721246 1.0953884962844105 1.8876643427527315 -1 3 -3
2646 2598 3 8.836961799581804 1.0885787848693649 1.5034667727033586 1 -3 -1
1361 1313 3 1.5491515648376646 1.9644647282289889 1.4552168605051123 1 -1 2
971 923 3 2.354523521137013 2.1383473550061063 1.6575176432545267 -4 1 -1
1365 1317 3 2.153382511834809 1.4956642171587247 1.6569755951416623 -1 2 1
2009 1961 3 3.1015712122779147 1.8770809114766882 1.7316096788347919 1 -7 -6
1250 1202 3 3.92917542936308 1.9150441318312268 1.7923179190667826 -2 3 4
1924 1876 3 4.480120511820144 1.9258661855358559 2.1255112790967243 4 6 7
1353 1305 3 5.123142805259159 1.6253939977373755 1.767827649677458 -3 6 2
2634 2586 3 5.707333153969784 1.5450248068070747 1.4873517724685983 3 2 -3
3016 2968 3 6.3969681097075375 1.5183136770478467 1.9451991961569797 -3 1 7
921 873 3 6.584465454400235 2.086244267546703 1.6675926553216405 6 1 5
515 467 3 7.333739075915114 1.4356644268515544 1.5497285102288936 0 0 -2
382 334 3 7.883486072625294 1.65077488228092 1.8528373043063924 4 3 -2
909 861 3 7.497148844983791 2.065546114668357 1.8234649076672471 -3 1 -4
3017 2969 3 8.380592930363306 1.9769746584573313 1.4371548458546926 -5 3 -3
1851 1803 3 9.183926768106108 1.7105942229494875 2.005630871101598 1 3 -2
2722 2674 3 9.25433985760948 1.8188249449150424 1.7143984412320774 2 -2 4
2550 2502 3 0.06001616598599774 2.7695623507962486 1.563646559247887 0 -1 0
1531 1483 3 0.41760344238605746 2.559525666987188 1.933834636867719 0 -2 7
367 319 3 1.7690805268300225 2.3294937853744804 1.7137821204637333 -3 -1 -1
79 31 3 1.462624508312068 2.492302799112882 2.0231945372325892 -1 -5 0
2398 2350 3 3.227735584289034 2.4317599120816626 1.7757002357234728 -1 -1 -1
517 469 3 2.690378510457929 2.366759457995671 2.0580398083847826 -2 6 -2
641 593 3 3.858953318602825 2.4242265970956374 1.9888618587918012 -5 2 -3
615 567 3 4.397188654264072 2.616304323517568 1.627736528916011 1 -3 0
144 96 3 4.488158177540976 2.613754339800497 1.527551104075344 1 3 1
2998 2950 3 4.940421928677782 2.2276076410627166 1.4880171307445305 5 -6 0
2022 1974 3 5.085216599862659 2.8432564981396906 1.8754368213811452 2 5 2
593 545 3 5.661447718859664 2.2221982825908335 1.447967044248755 -6 4 0
2104 2056 3 6.179895726611212 2.8308940408458203 1.704231928871386 4 3 -4
944 896 3 6.900124713521683 2.6001325850898547 1.9841115668375653 3 2 -4
2080 2032 3 8.067432317201133 2.5077149431641454 1.7779647297035586 1 -5 8
165 117 3 8.094196159077438 2.659392567195055 1.8220958379476369 0 0 2
1680 1632 3 8.768253591708374 2.3955314033154895 1.8229570855866115 4 -1 0
2512 2464 3 9.429787777161996 2.294258839696775 1.6929488223188016 3 -3 2
2124 2076 3 0.5398125125041497 2.9802170895893836 1.9273117834575106 0 2 -2
170 122 3 0.9439374843291976 3.4565075706505346 2.027837380998253 2 1 2
2256 2208 3 1.7314336836889148 3.089697192368016 1.7053420979350618 2 4 4
879 831 3 2.0211992469364675 2.8618347734045493 2.103569014697019 0 5 -3
1677 1629 3 2.523553725107058 3.311790958382624 1.5595348102716948 1 -1 5
1048 1000 3 2.8945264252306164 3.263782066364584 1.6452990838333255 7 -1 -1
3066 3018 3 3.512771789886042 3.2197782790156575 1.9896408314933967 2 -2 0
2704 2656 3 3.6319888290267457 3.5068871014397733 1.9402787185660533 7 3 -2
3243 3195 3 4.251687595958875 3.2680318868181497 2.076647491982914 -1 -3 -2
1789 1741 3 5.265426612708409 3.0161552798973004 1.8434289150062833 -1 0 3
1342 1294 3 5.6467454004037085 3.027872604419838 2.1316366015806185 2 3 -4
3311 3263 3 7.2694917969533295 3.270408051320838 1.6620097630421464 2 -2 1
1542 1494 3 6.884602167280643 3.222663621186726 2.0153217419504004 1 4 3
1604 1556 3 7.787455326749627 3.102620847511926 2.04086075368071 0 -3 6
1862 1814 3 7.5995152200058484 2.8712923946666695 2.1086964527900562 1 5 -1
1357 1309 3 8.410458103086134 3.3724639836779797 1.5095389260339558 3 -2 2
583 535 3 9.011988135414466 3.329391427457068 2.066310997361783 -3 -3 -3
1511 1463 3 8.735231154596688 3.0894623452404377 1.9929178306063908 4 -7 6
218 170 3 9.522544629427747 3.5382963137127725 1.5419571556703027 -4 2 0
2396 2348 3 9.666019425998867 3.304393000426697 2.095598315983895 0 -5 2
838 790 3 0.2766056397321616 3.7619850620445447 1.6124623559783586 4 -6 1
59 11 3 1.00784832800743 3.885134990837833 1.4653371886506492 7 0 -5
2082 2034 3 0.6873968418546714 4.030017892778005 1.9127757164311523 4 1 -4
1318 1270 3 1.609752000068837 4.025385412685783 1.6591708438770123 -2 4 1
2078 2030 3 2.3828529297340806 3.6012217404068116 2.1269518217622614 7 1 10
3085 3037 3 2.868476708793967 3.704209205626792 1.6767716779189221 -4 -1 6
613 565 3 4.529249043384786 3.635989452855161 1.4588805808994838 1 1 2
1240 1192 3 4.781419550684411 4.09052839336821 2.0786224571869534 7 -1 3
882 834 3 5.428910689796857 3.6474943362062855 1.7184274675691984 1 3 -4
2239 2191 3 6.10034238447251 3.7038609841778487 1.9047501013816124 -5 1 4
1403 1355 3 6.8947467136041425 3.7280959185130107 1.4656867843449892 -2 3 0
1310 1262 3 6.748688151394022 3.9922937215721315 1.7969846105375626 -4 -5 0
2513 2465 3 7.384997553195911 4.123585474338089 1.7406119828262587 -3 -5 -1
1388 1340 3 7.915653328848234 3.955322899777397 1.9237955608635164 -3 -3 -7
488 440 3 8.2594981665096 3.9709166037018675 1.8733689569882035 0 -3 -1
2334 2286 3 8.546245893079673 3.99837199413025 1.6353361633627568 -4 1 -1
973 925 3 0.4400242437751481 4.646815698666739 1.9893877379604288 -6 -3 4
2394 2346 3 1.126137446577303 4.380355703501293 1.7803142368188578 4 0 1
2675 2627 3 1.9047576622472902 4.786183685752091 1.5914088713509134 6 -4 3
2498 2450 3 2.5839259443659457 4.511418211405184 1.8446755125042995 -2 -5 -5
237 189 3 3.285724143524317 4.499461561600659 1.4828713464017513 -2 7 6
797 749 3 2.669124208584793 4.982615822211518 1.9765495651283782 4 -7 2
1462 1414 3 3.371676657077659 4.490088951721342 1.8937103083943982 4 -2 -2
1018 970 3 3.9048552926984836 4.98199475763889 1.5409548685140997 -7 2 0
1243 1195 3 4.183864582213194 4.996076693256841 2.103918847470968 1 -2 -3
1363 1315 3 4.219548730608553 4.5873633342167395 2.036844234988155 -3 0 5
541 493 3 4.6729971896460825 4.573327110360604 1.4431648494344085 3 -1 5
1268 1220 3 5.4494478380205855 4.522749933526857 1.5460751792813343 -2 -3 0
1072 1024 3 6.64867886775077 4.617449589061814 1.9497338572198917 -8 -2 4
1282 1234 3 6.09018148079455 4.863363037349062 1.8605182420558344 -8 3 2
1300 1252 3 7.722350290687487 4.818476456611315 2.043209679824099 -8 -3 -1
2419 2371 3 8.597018593785062 4.459902234196937 2.0233609023057397 -2 2 -3
3185 3137 3 9.147125726964495 4.394914452111044 1.8906521198490611 -3 -1 4
154 106 3 9.933519024458043 4.335725129024671 1.7509260791639607 -3 0 0
602 554 3 0.005526697709348967 0.2696150780759507 2.6110666517606744 2 -9 -2
670 622 3 0.942156727196396 0.6322932798202039 2.8475950114890844 -1 7 -1
1984 1936 3 1.453261654016206 0.18436359933861618 2.2110016669402235 -5 -1 2
2914 2866 3 2.6302952761574305 0.5802495481510528 2.6536301714270722 1 -1 1
840 792 3 3.1138722130181313 0.1643541602282772 2.146089416856076 -3 -1 -8
3246 3198 3 4.050348659806899 0.47061450168978214 2.4715790510539373 4 -6 -4
1094 1046 3 4.838524970264363 0.5166194620674615 2.6736614658173776 -1 0 5
3262 3214 3 5.39712327874395 0.5693075378348971 2.5745787521406425 -3 2 -4
2553 2505 3 5.741893451657827 0.1971044066455065 2.7610535032215333 1 -1 0
2577 2529 3 6.648400363155904 0.29723620574646537 2.1673549367189513 1 2 -3
961 913 3 6.445686010734838 0.4808182703197897 2.8516625488383096 0 2 -4
3028 2980 3 7.026106756900546 0.18253785018780627 2.4338788869054033 -2 -5 3
2554 2506 3 6.6824694345437 0.694033597152333 2.4588692435932824 -2 -5 -5
128 80 3 7.556324590312134 0.34104989354714943 2.6464804846922014 -2 2 3
1333 1285 3 8.382009917266915 0.06230663202333453 2.5676267839024147 -2 0 3
2870 2822 3 8.775014359275676 0.14054040356888908 2.4646744219167753 -1 2 1
3391 3343 3 8.98281682146111 0.3881923433550115 2.3644036820322674 -5 3 0
1173 1125 3 9.58152569519518 0.21629366974446232 2.3962664869798354 -2 3 -5
2916 2868 3 0.6798679496854791 0.9616563693529518 2.4041886916603046 1 -1 1
1818 1770 3 1.2034988264296378 0.9931368307225769 2.2066528183582483 -4 -1 -1
457 409 3 2.6851745141546366 1.1586213041653661 2.3650856699655027 1 1 -4
614 566 3 3.349983667695403 0.8238820592009432 2.3952074996331505 -6 -2 -2
3389 3341 3 3.7919870437247476 1.35380906027431 2.5724754134050976 9 -1 0
3087 3039 3 4.4107715620444905 1.3207815256531275 2.7011067859222275 1 1 -5
1751 1703 3 4.357134272988482 1.0643842149259222 2.1513015603541303 0 -5 -2
3250 3202 3 5.2341714616984 1.187089570031954 2.2541734259113926 -2 5 -1
310 262 3 6.552365261130904 1.3582478526797697 2.7974102334052438 0 1 -6
2545 2497 3 6.016132554333218 1.1278127427565918 2.573051435801324 -4 -4 0
1793 1745 3 6.975813256700163 1.1529120779242725 2.4604815180530313 -1 -1 2
546 498 3 7.123300701890935 1.154068008753633 2.733243432563349 2 0 -5
1189 1141 3 7.660321248969945 1.2161267379546772 2.6395300031465725 -4 -5 0
757 709 3 8.024990982725237 0.8219201754105726 2.214219336204512 2 4 -1
3078 3030 3 8.334407466974001 0.9772328365177627 2.443630724780662 4 3 -4