LAMMPS data file via write_data, version 29 Oct 2020, timestep = 111475

56 atoms
2 atom types
48 bonds
3 bond types

0.0 10.0 xlo xhi
0.0 10.0 ylo yhi
0.0 10.0 zlo zhi

Masses

1 1
2 1

Pair Coeffs # lj/cut

1 1 1
2 1 1

Bond Coeffs # harmonic

1 50 1
2 50 1
3 50 1

Atoms # bond

45 7 2 1.5075992689960978 1.9164709438816676 0.10226380304859477 4 3 7
46 7 2 0.9800003642022723 2.2939203301185778 0.9991315909762231 3 3 6
44 7 1 1.293391583881111 2.8042217658822137 0.4099511265130993 3 3 6
47 7 2 1.165276991097719 1.6146770771362833 1.4482360047564649 1 3 7
43 7 1 0.4961383662922631 2.096742112954668 0.4317015402326242 3 3 7
35 5 2 4.239501422037345 2.86709223600136 1.8404918577900231 -1 -1 -4
42 6 2 8.0200237386355 7.040692714611815 9.99250103459356 3 -6 -3
41 6 2 7.638402969386284 7.847565537866949 0.1396187943756753 3 -5 -2
48 7 2 1.6920114829707056 2.4774456793536435 1.5794338245886084 3 3 6
49 7 2 1.6116533390401215 2.035210805631142 2.800102613072473 4 3 7
32 5 2 3.336819676990089 3.304607707736616 2.120046240957307 -1 0 -2
34 5 2 4.241032796773928 3.5905140270422575 2.379413254987904 -1 0 -1
33 5 2 3.5292147874480806 4.133338063805035 1.8802618691065904 -1 -1 -2
31 5 2 3.890202684535833 4.096297162144144 2.6782440075322143 -1 -1 -3
24 4 2 4.810948081206039 6.213102260351874 2.2762686528722393 -4 3 0
28 4 2 2.978337694238239 6.295152535415524 2.0759153156893126 -4 3 0
27 4 2 2.3667870849524464 6.654659935441531 2.4459189604825 -3 3 0
25 4 2 4.041848537657873 6.3061661983691515 2.363836135264011 -3 3 0
3 1 2 1.8723095126088336 8.656997831479535 2.63186378610711 -1 -2 0
4 1 2 2.6722233669043405 7.966850727754671 2.2560303002015445 -1 -1 0
14 2 2 7.295990554698247 9.51912612021949 3.7178913062360475 -5 0 1
30 5 1 2.9902561719201146 4.6054812750307965 3.273280935760367 -1 0 -3
29 5 1 2.2838747873072616 4.732690691786191 3.9613815950883517 -1 -1 -3
22 4 1 5.98396990172514 5.127076274519846 3.4230936600797675 -4 3 -3
23 4 1 5.713145850239126 5.656316862122449 2.6875397233866423 -3 3 0
26 4 2 3.2801847372523816 6.869555278132765 2.7677497092668903 -4 4 0
9 2 1 6.671725557979642 6.719849126334108 4.246609016092863 -4 0 1
2 1 1 2.4493530309711127 8.027820251830242 3.0006076519381177 0 -1 0
5 1 2 2.6231069549804635 8.305370148646208 3.1841048563354497 -2 -2 0
19 3 2 4.724149883808585 7.738180146367558 3.7035861055455235 0 -1 -1
21 3 2 6.032768917673332 7.863876980730438 3.488312600614461 0 -1 -1
10 2 2 7.591975261239251 7.0642243236698015 4.245062199045132 -5 0 1
12 2 2 7.9954498267869205 7.884660281211012 3.6369930943623294 -5 0 1
1 1 1 1.5685581196484968 8.459098466080402 3.420568437719411 0 -2 0
6 1 2 2.391495224777931 8.692281892892478 4.048693123198424 -2 -1 0
17 3 2 4.5311913488000535 8.739913671273255 3.256965448302101 0 -1 -1
20 3 2 5.385592172283355 8.033297219818783 4.2503245017360225 0 0 -1
13 2 2 7.257417555378173 8.470178781296477 3.5165030884482054 -4 0 1
8 2 1 7.539484594008751 6.979760008449573 4.868517538789362 -5 0 2
7 1 2 3.0112431042458003 8.11542310871233 4.582500043608063 -1 -2 0
18 3 2 5.201113932331184 8.738934128572438 3.8373493613820258 0 0 -1
11 2 2 8.026039591082942 7.639007534844694 4.771825965572021 -4 0 1
15 3 1 3.9396279683114415 9.762391383550016 4.240370508341175 0 -1 -1
16 3 1 4.6468854436927955 9.203386929285465 4.115720992302712 0 0 -1
53 8 2 7.5353904291303495 1.3344862378171318 7.94341542537495 2 0 0
52 8 2 7.705099595235567 0.9707081339272946 6.993896282258434 2 0 0
55 8 2 8.335274991331755 0.6748559493812177 8.566401658388395 2 0 -1
51 8 1 8.213395610789126 1.8146710253688367 7.2364278695974695 2 0 -2
54 8 2 8.314532410342986 1.853117265856951 8.34638308859636 2 0 -2
50 8 1 9.27634189873904 1.496402290410516 7.39495224819349 2 0 -1
37 6 1 8.619731555897465 6.638870277779986 8.50699548725828 3 -5 -4
36 6 1 7.814418256290631 6.562991976087551 7.843266965234439 3 -6 -4
56 8 2 7.305926116829055 0.4313280170964289 8.476544797053293 2 0 -3
39 6 2 6.926482304464878 6.8515806503978895 9.063786181424272 3 -5 -3
38 6 2 7.807093418519753 6.585769781090152 8.986321090286301 3 -6 -4
40 6 2 6.548584254994333 7.603846976375757 9.816819830803182 3 -6 -3

Velocities

45 0.9437062415705342 0.3537989183412171 -1.2292444013976027
46 -0.7331622606512652 -0.3581002387301661 -1.1657997377744722
44 -0.7753428351836776 -1.1779173292158835 0.6434178543793557
47 -0.11157428328344358 -0.3420610792794703 1.2707867122541663
43 1.014764447023534 0.4746770576110493 0.8165193089269314
35 -0.8792991653133267 0.4975135183648758 1.2874673065804985
42 2.1577160871759387 -0.9928702925248181 -0.06911073963675658
41 -0.07124132054480578 -2.6405116296308813 -0.22029856496103178
48 -0.5007971441882397 3.2380860768018938 0.2035996710368073
49 1.1546155129739504 -0.4863966881166078 1.1936160376545446
32 -1.4359141540643579 1.786418680059784 -1.7937321515632207
34 1.0016721267167716 0.9986520067267013 0.7591452100365674
33 1.0768769320849954 2.0361254594682396 0.12139245940926008
31 1.0980220300685346 -0.7282679441409413 1.7195178354757434
24 0.12266582502450261 1.9957627460226768 -0.7856406384843279
28 0.8257326047995114 -0.2637263392300974 0.8878816522051415
27 1.083330010303523 -0.4240717247254788 -0.34867149884436144
25 1.2668340887308387 -0.11086917754562921 -0.6706307636098231
3 -0.4626617029401419 -0.17776533755753957 0.5755988735396995
4 -0.08311506549877207 -2.389695586889044 -0.8983350616686709
14 -1.6830125220100232 -0.006088891398149137 2.8937312243278357
30 -0.9919061508832796 0.5879233618591094 -1.4368492366384789
29 -0.776967781243796 0.30682298252607 -1.219482025514833
22 1.4191720886134158 1.7111478025974698 -0.01087457839040513
23 -0.9285440886893492 0.3222046821354108 -1.5920966842523805
26 -0.5420755360559355 1.8521898488342996 -1.2729755648180647
9 -0.9595811648935298 -0.7124528253436374 1.4696281560527291
2 0.18113247074913102 -0.18999341433719028 0.2910610695481891
5 0.5490894137584131 0.8059196345046261 -0.5105552697133151
19 -0.5308013190445816 -0.5143638449582474 -0.7536880652013201
21 -1.2189268547106067 0.23009537545728717 -1.157668359696608
10 -1.0908014234594412 -0.7427216747349102 1.9058483032074567
12 -1.0321310677690843 0.25632229245064764 0.42477421498857565
1 -0.4577761546732815 -1.1090188666509186 0.95844701242326
6 -0.9151945017298575 -1.02208118940176 -0.15648910416259457
17 -0.48356163978071587 0.04018056527668954 -1.4934135901111916
20 0.08618617880731294 -1.4732373867947375 -0.32462894355252125
13 -2.876616154945737 0.04203319129006034 0.3838762309753629
8 -0.5230164725588702 1.4426563192475723 -0.11619707019953547
7 -0.16193429204175633 -0.30536695983795664 -0.15102468651693388
18 0.14824536607336283 0.7237645066317319 -2.175868373851035
11 -0.08320502431548767 -0.2545008502216991 0.5042283062764555
15 1.1590615418951289 -0.0681612451031586 -0.43172108979485724
16 -0.13787717980730466 0.3229881139088946 -0.7715183462369185
53 0.6272870353438107 0.062049494636406695 0.08966373574748106
52 0.8590357777108591 1.1219151588359129 -0.5496240556606053
55 -0.6636337597661577 -1.4569806438822288 0.8630945446702621
51 -1.0259986733245106 -0.8353106711361538 -0.17733853893358795
54 0.36230851879340514 0.3710581997961394 0.49377506208347716
50 0.8241123799901218 -0.8682754450125759 0.4771101718119297
37 0.37125728655024065 0.11498378578081828 1.5878327359185833
36 -0.07789430926172387 -0.8726472881239408 -1.0132344530569937
56 1.1130295916622708 -0.21679318020648744 -1.3501639505000131
39 1.4889204402016056 -0.007716308402421867 0.9241951821298262
38 0.9432052245754464 -0.07640006009039178 -0.1517446266382269
40 0.33658478143606263 -0.8709256659421236 1.2524112997201928

Bonds

1 3 45 46
2 3 46 47
3 1 44 45
4 3 47 48
5 2 43 44
6 3 41 42
7 3 48 49
8 3 32 33
9 3 34 35
10 3 33 34
11 3 31 32
12 3 24 25
13 3 27 28
14 3 25 26
15 3 3 4
16 3 4 5
17 1 30 31
18 2 29 30
19 2 22 23
20 1 23 24
21 3 26 27
22 1 9 10
23 1 2 3
24 3 5 6
25 3 19 20
26 3 10 11
27 3 12 13
28 2 1 2
29 3 6 7
30 3 17 18
31 3 20 21
32 3 13 14
33 2 8 9
34 3 18 19
35 3 11 12
36 2 15 16
37 1 16 17
38 3 53 54
39 3 52 53
40 3 55 56
41 1 51 52
42 3 54 55
43 2 50 51
44 1 37 38
45 2 36 37
46 3 39 40
47 3 38 39
48 3 40 41
