LAMMPS data file via write_data, version 29 Oct 2020, timestep = 120000

3250 atoms
3 atom types
3125 bonds
6 bond types

0.0 30.0 xlo xhi
0.0 30.0 ylo yhi
0.0 30.0 zlo zhi

Masses

1 1
2 1
3 1

Pair Coeffs # lj/cut

1 0.055 1
2 0.055 1
3 0.055 1

Bond Coeffs # harmonic

1 50 1
2 50 1
3 50 1
4 50 1
5 50 1
6 50 1

Atoms # bond

1199 47 1 0.05258718841899953 0.8583406230173213 29.050242867150157 0 1 -1
790 31 2 10.591291274449226 29.99013042969072 2.4418174952948863 0 -1 0
916 36 1 20.68111872122439 2.310805542873191 29.62577193068619 0 1 -1
917 36 1 20.008031912615998 2.1964328198358887 0.3743118639113873 0 1 1
1827 71 1 23.64525147262071 0.21701144784991222 0.27464935298691 0 1 0
1987 77 2 26.052863599241302 1.7540141438778365 0.648697013432491 0 1 0
517 20 3 1.1365025969156013 4.029018629769065 29.825360791637273 -1 1 0
918 36 1 19.183562619978936 2.1005041501925414 0.6591459488485742 0 1 0
915 36 1 19.721309403305828 1.9424519279619703 29.98785212681652 0 1 0
913 36 1 21.096458964766814 2.4840137824120005 0.6152927961864372 0 1 1
912 36 1 20.90931487988108 3.1494123798681173 29.941669581641058 0 1 -1
1988 77 2 25.386509011000683 2.0788314012583675 29.73724788780433 0 0 -1
2394 93 1 27.382108076961995 2.4661266429685242 0.5251753148959969 0 0 0
2395 93 1 27.749512328580664 3.361744076270353 0.4370072220750144 0 0 0
516 20 3 1.8056798411227664 3.483346578086943 0.3120684857180699 0 0 1
515 20 3 1.5595772434888862 3.3121153899064097 1.1540173313849464 -1 0 1
2443 94 3 12.875930933575924 4.087231026030516 29.591454229818698 0 2 0
2444 94 3 12.221831003435927 3.651015840137999 0.36202525155417076 0 1 1
920 36 2 19.12430856515042 2.9073826172014656 29.511748669971812 0 1 -1
921 36 2 18.697432845286716 3.656017565961548 29.88023522752728 0 1 0
1989 77 2 25.936820934682064 2.907685961288371 0.26010466085048795 0 1 0
1990 77 2 25.554510764132726 3.081239556282808 0.9443111134341312 0 0 0
2396 93 1 27.971175575040437 4.116459967449741 1.096165143833973 0 0 0
513 20 2 1.4876843379027072 5.033262538624608 1.3892661237459318 -1 0 1
514 20 2 2.019026977113789 4.193939107345302 0.9168645135509045 0 1 1
511 20 2 1.0367945988226555 5.807459823694284 2.4835806087790067 -1 0 1
512 20 2 1.533111207037608 5.994115017187616 1.7428764840323736 0 0 1
2440 94 3 12.133983382304073 4.710389455841007 29.47028006510687 0 1 0
641 25 2 18.373444306840312 5.490140112424078 0.560483912129648 0 1 1
930 36 2 19.393399739540975 5.258323177765356 0.4711456115510033 0 1 0
929 36 2 19.570574714060744 5.881937810797098 29.769265471754945 0 1 0
510 20 2 1.560273962429741 6.678138806344604 2.064694182416092 0 0 1
2676 103 3 0.9396937265079559 6.331339320625202 0.5599198344227501 2 0 0
2677 103 3 0.20540360111565664 6.756404453216988 1.318305514488645 2 0 0
2438 94 2 13.423598399763577 6.406391308864467 29.177737605889813 0 1 0
642 25 2 18.126367873154397 6.213466901513102 1.251000542924808 0 1 1
643 25 2 18.481652427938478 7.138231992709007 0.9218840028465645 0 1 1
2408 93 2 26.193061231352768 6.918205719302016 0.5667136024178145 0 0 0
2407 93 2 25.2366128883238 6.997718780996772 29.942037823911242 0 0 -1
2406 93 2 24.912409332583977 5.905763036573149 0.05061725625163773 0 0 0
753 29 3 1.6877819493959398 7.973910891354367 1.5266090644534929 0 0 0
644 25 2 17.590674239581226 6.843433183068985 0.22665557336695585 0 1 1
2409 93 2 25.449298742909047 6.957506819723041 0.8096988180288098 0 0 0
2412 93 2 24.4419698753312 8.003459612814142 29.97153742653812 0 0 -1
2417 93 3 26.97499017795313 8.506829161078148 0.9914005034869138 1 0 0
2416 93 3 26.333845518568232 9.32401402877027 0.6580283968273907 0 0 0
2418 93 3 27.930780891342483 8.603688743221488 0.9645915168975855 1 0 0
749 29 3 0.6690749117576997 8.491278878306616 29.42109597014304 0 -1 -1
751 29 3 1.9649340463588238 8.334919015111002 29.605647913330017 0 0 -1
750 29 3 1.210724122878372 8.03088205725425 29.999866613715273 0 0 -1
748 29 2 0.04516493632382894 9.161244273740364 29.403571257637967 0 0 -1
754 29 3 1.155267440954595 8.70354620450519 1.4662166860742434 0 0 0
2193 85 2 9.982121101018702 10.345613621494735 1.2128147484031915 0 0 1
645 25 3 18.033085783069154 6.928008352352079 29.291113921468757 0 1 0
2357 91 2 19.383121496227364 8.574388898392007 1.5501548291667797 0 0 0
2360 91 2 18.908195077975716 9.687789244552548 2.980166711265931 0 0 0
1304 51 1 21.780010408306445 10.26581394622316 0.21692797476265466 -1 0 1
2413 93 3 25.27028544686384 8.479777206085119 29.701243149938964 0 0 -1
2415 93 3 26.96620287628443 8.48293555767731 0.342395173123555 0 0 0
746 29 2 0.9076170472587073 9.545190331139366 29.92717880966179 0 0 -1
2358 91 2 19.02360908324928 8.543751806937358 2.5071134128358215 0 0 0
1303 51 1 21.122481501452718 10.906727819291698 0.6706059247457147 -1 0 1
1305 51 1 21.506066952439518 11.026712158411732 29.417948356486356 -1 0 0
745 29 2 0.11427944767401502 9.592710831365705 0.6161618443972753 0 0 0
740 29 2 28.37238977222541 10.718692898692064 1.1287258450653794 -1 0 0
741 29 2 28.789596679307717 10.814798049799455 0.38383859507785567 -1 0 0
731 29 1 1.278000851806771 12.05067135636457 0.9662876292989732 0 -1 0
729 29 1 0.19651544406199115 12.28311115252039 0.5613632997652068 0 -1 0
732 29 1 0.689737629484626 11.580217250923967 1.7594627788189343 0 0 0
730 29 1 0.8328686538277948 11.51722983126213 0.33817740456172674 0 0 0
2164 84 1 11.448191238921583 12.8540321340831 2.7708041830991665 0 0 1
2163 84 1 12.154247989118856 12.401249628075261 1.9764854174982187 0 0 1
440 17 3 24.616631700244575 13.345516169648672 29.86440700108791 0 0 -1
1017 40 1 27.120335713632905 12.138910200008002 1.9148375663197026 -1 0 1
1016 40 1 27.938027394257432 12.64890470717848 1.5389054447205384 -1 0 1
739 29 2 29.269157666492276 11.407503786371375 1.0073222729576459 -1 0 0
738 29 2 28.280986510226377 11.857687411811584 0.9748079715797122 -1 0 0
594 23 3 11.971461388550797 14.103428055329745 0.7828297354324681 0 1 0
863 34 1 18.572389220134806 14.274670001523583 0.8168579756200186 -1 0 1
438 17 3 24.097179960844805 13.551851656920121 1.330789099603781 0 0 0
439 17 3 24.583020558753283 13.546778307596735 0.6560651277401076 0 0 -1
1022 40 1 26.75375871191323 14.137595634920821 1.366690194960115 -1 0 1
1015 40 1 28.415805370634565 13.072315767643666 0.6415941073010794 -1 0 1
975 38 2 1.138756045204511 15.402595127613823 1.0793225759607643 0 0 1
976 38 2 1.3913329419837108 15.678605913058865 0.19654239218456776 0 0 1
973 38 2 0.7283362629286941 15.814016070781026 1.1043539239691658 0 0 1
596 23 3 12.435669936255838 14.798981654831497 0.5378151168569117 0 1 0
2745 106 2 14.580246801219662 14.89567239636402 0.04622634259706021 1 -1 1
2746 106 2 14.088615932133875 14.529278310215478 0.7439742448978715 0 -1 0
2744 106 2 14.450183516488257 15.85523108062199 0.02539284667753752 1 -1 0
866 34 1 18.737814245954045 15.641886707317289 1.3737032897090102 -1 0 1
864 34 1 19.331032326790226 14.65347203502555 0.4723425987470616 -1 0 1
865 34 1 18.545432668126622 15.230407597682191 0.4208915112204882 -1 0 1
2800 108 2 20.734098540906775 14.984199534002888 0.37994845933918053 1 -1 0
2799 108 2 20.59590801117707 15.725331095104977 0.8928032217239266 0 -1 0
972 38 2 0.8467881236931681 16.675127043133134 0.5616833405756132 0 0 1
977 38 2 0.7557001575873068 15.957507616761289 29.467668094109914 0 0 0
1659 64 3 5.352088769457669 16.81534062156155 1.6783360127587235 1 0 0
1657 64 2 4.40865642732259 15.80121798374762 0.3732592436462006 1 0 0
1660 64 3 5.434207114293329 16.294988567201838 0.8027284699946259 1 0 0
1661 64 3 6.289606400231949 16.827389838130514 0.7182717302228571 1 0 0
2747 106 2 14.327098415989491 14.978022866186183 1.848831759751348 1 -1 1
873 34 2 16.671593024306425 17.144735845414658 0.7015280259624884 -1 0 1
872 34 2 16.08150757149624 16.456181239914738 1.1298772938223542 -1 0 1
871 34 2 16.58440380683919 16.352871291419323 2.1212902407515273 -1 0 1
867 34 2 18.242484382617096 16.513768762469823 1.093273515055352 -1 0 1
2798 108 2 21.47829194344282 15.559412082769931 1.570620359227196 1 -1 0
2796 108 2 21.87409997237914 15.73903915065552 0.6924405270943941 1 -1 0
1870 72 3 28.125824919452732 16.19794778286686 29.02328911000183 0 0 -1
970 38 1 1.289973312592597 17.64928275233663 0.7861043126918668 0 0 1
969 38 1 1.1637276919275843 18.45008651204978 29.962996955638708 0 0 0
984 38 3 0.35808300766091095 17.65732226484952 0.20442888860988898 0 0 1
982 38 2 0.030545946170153652 16.861508666127918 29.570359547814764 0 0 0
1664 64 3 6.890209970260415 17.836112212276667 1.0799440801195848 1 0 0
1663 64 3 6.459525223342775 17.295411308418267 0.10010513288030017 1 0 0
1662 64 3 6.388833568251093 16.257642199782428 29.96417566969479 1 0 -1
1523 59 2 10.457705455325772 17.432169175620412 1.7181000002159925 0 0 1
874 34 2 16.686766709608825 18.085074388573673 1.0743739812022013 -1 0 1
875 34 2 15.843715672340553 18.38088003615712 0.3184224850681624 -2 0 1
880 34 3 17.842232975023478 18.912464113346722 0.7331699189140225 -1 0 1
884 34 3 18.895990535919847 19.906867710049003 0.5263078665704833 -1 0 1
2795 108 2 21.16243901232757 16.41764806216412 0.9046193176390376 0 -1 0
2797 108 2 21.090098631645763 16.4006345887197 1.1098371458503884 0 -1 0
985 38 3 29.49997416461672 17.59192999299111 0.2950751211360462 -1 0 1
968 38 1 0.7596657756453623 19.024956057763955 29.05756234557552 0 0 0
967 38 1 0.30460369269563864 18.55371855365641 29.8802385750587 0 0 0
2614 101 2 4.265774421917069 20.469758203133026 29.60011337601173 1 -1 -2
2619 101 2 6.816277094626517 21.150325605266055 1.5587141663092454 1 -1 0
1810 70 2 8.676172776131459 20.52019616500951 28.592268741245938 0 1 0
877 34 2 16.255356266787402 19.63655196849128 0.020606948581743237 -2 0 1
876 34 2 15.321380230366996 19.215379155818518 0.31979859519502296 -1 0 1
881 34 3 18.812387013265663 18.75158335402596 0.3945270284282251 -2 0 1
2611 101 2 3.0833978583309056 21.052673659235882 0.22512656991585037 1 -1 0
2612 101 2 3.714998009370533 20.370428554173024 0.421574580029976 1 -1 -1
2618 101 2 6.534331850886086 20.56376368300753 0.8206315797990351 1 -1 -1
2617 101 2 5.753102686656765 20.692902370041097 0.35845958241667814 1 -1 0
2615 101 2 5.116847103749676 20.253710020530303 29.499120129078996 1 -1 -1
1802 70 1 8.380861136357208 22.644287966006747 1.6636276011737612 0 1 1
1800 70 1 7.855424366472537 21.957886941953976 1.0777521950064646 0 1 1
1809 70 2 8.663840901669616 20.654175219285932 29.61684880054242 0 1 0
2445 95 1 25.51540527284033 21.69801414322896 1.601155531460597 0 0 0
2449 95 1 27.21127642092956 20.079558784375603 2.0739963300062794 0 0 0
2452 95 1 27.337696003620344 18.533766429128416 1.2404247706072815 0 0 0
2451 95 1 27.021828478823394 19.313145705837293 0.7562851651672045 0 0 0
2448 95 1 27.084300631965213 20.009494284018377 1.271984307645667 0 0 0
966 38 1 29.841901545505575 18.90628527951436 29.00211268163164 -1 0 0
964 38 1 29.84901220257673 20.526818175411957 28.957993515018945 -1 0 0
2604 101 1 1.7714095326322512 23.087672522681277 29.46137411542502 1 -1 -2
2608 101 1 3.6357494727185897 21.79550497743987 28.780224270578234 1 -1 -2
1801 70 1 7.768157915989848 22.9935469380538 0.959265103297486 0 1 1
1803 70 2 9.20785640042191 23.06219265794393 1.6530537391001165 0 1 1
1799 70 1 8.164496486063094 22.331151738386033 2.0609468035491023 0 1 1
1807 70 2 9.384826899787273 21.921283610004505 1.1127445848241773 0 1 1
1805 70 2 9.361175216082618 23.04086078376595 1.3322373249660941 0 1 1
2089 81 2 5.440351714229651 23.833466991743283 0.5079417776381102 1 -1 0
2090 81 2 5.55462251348346 24.881119032203664 0.7076704654732361 1 -1 -1
2087 81 1 5.629656577187026 23.79890998949567 0.3202776465198385 1 -1 0
50 2 3 12.709655862893378 22.52225311222186 29.686425282899584 0 -1 -1
2513 97 2 3.8295893179700027 25.71620746610627 0.2546067686060316 1 0 0
2091 81 2 4.75961179371034 25.02334973095881 1.2235033883584103 1 -1 0
2092 81 2 4.221637825039575 24.298256549171725 0.8078886771602126 1 -1 -1
2977 115 2 0.3227788753702847 26.983603576291767 29.438770352735276 1 -1 0
2512 97 2 4.447100769379088 26.47360302963822 0.05679437061676125 1 0 0
2511 97 2 5.2301802316932156 25.83110350513803 29.889781034930685 1 0 -1
2326 90 2 7.740025766963258 26.51350558889891 29.733993109376634 1 0 0
2327 90 2 7.730491231204172 26.44355465641113 0.7710558592021747 1 0 1
2328 90 2 7.196393234451213 25.74778990349295 1.20022105014538 1 0 1
2336 90 3 5.8660691818963695 27.965536613510505 0.6466174228788348 1 0 1
2332 90 2 7.433358792037058 27.95758996351773 2.032107946525652 1 0 1
2335 90 3 6.0684318705960045 27.5316259245655 1.5279065517532828 1 0 1
2337 90 3 6.031699467359357 28.131922038479644 29.749771559982545 1 0 0
2331 90 2 7.615522038458301 28.30275688497742 1.1618144639476844 1 0 1
759 30 1 15.431989653705964 27.125474992931686 0.6903210192307907 -1 -2 1
758 30 1 16.262654982188376 27.641006945148245 0.7018590888446528 -1 -1 1
761 30 1 15.598381641188144 28.239510372951454 29.24641745837631 -1 -2 0
1831 71 2 24.62067021527055 29.869218580328194 0.8501425497244202 0 0 0
2981 115 2 29.866778616557305 28.53337625271343 0.7739372997327991 0 -1 1
2334 90 2 7.060934827956343 27.78216803039475 1.5610840891826283 1 0 1
788 31 1 10.421699412229088 29.788527725572404 1.5307660259624285 0 -1 0
755 30 1 16.044012037343045 29.196924830325305 0.6449060498662996 -1 -2 0
757 30 1 16.158700334741106 28.465331891569114 0.3635462853205384 -1 -2 1
756 30 1 16.8560747655971 28.742116000566302 1.1148046498294764 -1 -1 1
1832 71 2 25.574394015265355 29.845510075508365 0.2553264414745955 0 1 0
1830 71 2 24.54836412705301 29.084503880272365 0.019929661921838225 0 0 1
1833 71 2 24.650208956983818 0.040539382826494 29.91812031322492 0 1 -1
2982 115 2 29.282017422982456 28.02689175585412 1.482186278786274 0 -1 1
793 31 2 8.993850007151252 0.9632114808947531 2.176929660372273 0 0 0
791 31 2 9.993910913418663 29.381065733221874 2.105484981572264 0 -1 0
792 31 2 9.441760154877832 0.09417532722910896 2.1207178982893176 0 0 0
470 19 1 15.113562526967549 1.1759174841940916 3.394602848758594 0 0 1
1828 71 1 24.222741638234723 29.55342113163383 0.9033526317286519 0 0 1
1826 71 1 23.11346886169486 0.4575218661514106 1.010630331687146 0 1 1
797 31 2 5.34552512524979 2.8253236614831017 2.857423930972662 0 0 0
794 31 2 7.927088447645582 1.2577367015227043 2.333619752617617 0 0 0
919 36 2 18.662954851935684 3.0553760574209066 0.5473597658906362 0 1 1
1821 71 1 23.10711115798352 2.585290145506316 2.8157830966718174 0 1 0
1825 71 1 23.776027502000964 0.8403766548355927 1.5223339146227015 0 1 0
1823 71 1 23.373801090395965 2.1497972422358687 1.016453478895364 0 1 0
1824 71 1 22.838477696383492 1.3885737355022687 1.733290115721625 0 1 1
2393 93 1 27.384605255532666 1.931561604763772 1.3332432246534602 0 0 0
799 31 2 4.571198152803666 4.060199824205912 2.5878943608848926 0 0 0
801 31 3 4.8796372065769384 4.138181872751501 3.0246433474362995 0 0 0
1822 71 1 23.376083158315467 1.9199454477630982 2.042883464141241 0 1 1
130 5 3 26.62167388582732 4.474277432032268 3.8256654159571277 0 0 1
2398 93 1 28.285345376974202 3.5060847551263215 2.0578331377527 0 0 0
2397 93 1 27.713011046689576 4.153416511901207 1.9954438004599608 0 0 0
800 31 2 4.691396354450918 4.9490091240900025 2.997404811711083 0 0 0
2547 98 3 8.709339257095657 5.174095725334155 2.5956224650297712 1 2 0
2548 98 3 8.352263125902098 6.169911916490811 3.0711970631644077 1 2 0
2546 98 3 9.64203734804424 5.627318098075899 2.3708243062625804 1 2 0
637 25 2 16.27889971226458 5.454636681643941 2.1551116118374836 0 1 1
639 25 2 17.626071850999153 6.330354068184563 1.428573263323277 0 1 1
640 25 2 17.495693458488102 5.742058487058415 0.7127560339879505 0 1 1
851 33 2 19.550021043411746 5.358691756132853 3.3953873593499004 -1 0 0
854 33 3 19.873250567843726 4.773060869865516 1.6703363269764735 -1 0 0
852 33 2 19.9370555979358 5.807020574709791 2.5659502201549604 -1 0 0
2402 93 2 25.557755162975873 5.6648734229029065 1.2842413873335454 0 0 0
2403 93 2 25.77701442995334 5.3296478076335765 2.0588577345898385 0 0 0
2400 93 1 27.26850098272968 4.9356034500531365 1.5022317410072898 0 0 0
2401 93 2 26.241591614664504 4.852546472613801 1.3428635386550685 0 0 0
509 20 2 0.8133903319927639 6.574245813991975 2.5703053093604606 -1 0 1
506 20 2 2.814015861869398 6.910923502213636 2.316819952634486 0 0 1
853 33 3 20.255051402379156 5.7463159332188045 1.4524371575363828 -1 0 0
2405 93 2 25.569672691481532 5.7851738947084606 0.8319471178179833 0 0 0
2404 93 2 26.09666443105511 6.0505641995569635 1.7482551575271699 0 0 0
2678 103 3 0.11382728522348505 5.927724588813389 1.1623365789355662 2 0 0
508 20 2 1.487473763037407 7.195592286778534 3.2261554313443686 0 0 1
507 20 2 2.1813105921517644 6.773188076263651 3.064747701626921 -1 0 1
497 20 1 5.997216653647435 8.524300530036578 3.8435314010004684 -1 0 1
498 20 1 4.962018519082203 8.748149053421725 3.9061339219377165 0 0 1
2191 85 1 10.24262770829578 9.313009165317107 2.468266364747831 0 0 1
2355 91 2 20.39002840247216 8.275640473492219 1.557120119131767 0 0 0
2364 91 3 17.635890492727196 7.690329020388987 2.4809676090536508 0 1 0
2354 91 2 19.794419413089578 7.96406275560807 2.4380437874662015 0 0 0
752 29 3 1.3078764079040306 8.10395749082756 0.5817287663476702 0 0 0
2192 85 1 10.276406645173346 9.658633265926465 1.751923897872778 0 0 1
2363 91 3 17.36216988608409 8.467736839958839 2.191169340415863 0 1 0
2362 91 3 17.67610511431907 9.275230723583153 2.066962634323075 0 1 0
2359 91 2 18.85050886286875 9.311386828112653 2.1011697726051333 0 0 0
2356 91 2 19.956804911809833 8.124142896251614 0.672436887132733 0 0 0
1646 64 1 2.6348650233562525 11.034921226871045 2.7084654735822498 1 0 0
2160 84 1 10.915218285576389 12.238885961217752 1.948697896644272 0 0 1
2361 91 3 18.491469005752073 9.784896723886286 2.145668279785227 0 0 0
432 17 2 25.57829130187245 11.726709770753923 1.578523858480134 0 0 0
734 29 1 1.0661327690080735 12.489209649221518 2.140693311701285 0 0 0
733 29 1 1.557083072651801 11.682498317790518 2.277167544427265 0 -1 0
735 29 1 0.3897791751831243 11.56855232559817 1.7237958960450364 0 -1 0
1647 64 2 3.1620933257386663 11.983642966388974 2.5935825760055073 1 0 0
1649 64 2 2.7695022577652817 11.812045048499519 1.7389876735184826 1 0 0
1648 64 2 2.9227922191503097 12.724343552437771 1.8261777247651554 1 0 0
2159 84 1 10.743265675129706 12.056497104698614 2.9971694415540346 0 0 1
2161 84 1 11.788168665527223 12.307246141717375 1.6703675002267464 0 0 1
2162 84 1 12.190114469640099 11.649382097920226 1.4480624238266102 0 0 1
431 17 2 26.231258485580284 11.401951399858184 2.3072531973450934 -1 0 0
1018 40 1 27.65731803179128 13.020107711857909 1.8091718582893734 -1 0 1
433 17 2 26.275268563087025 11.878731873070123 2.5564223828860735 -1 0 0
1019 40 1 27.28457472995613 13.528728831088033 2.4667749296149557 -1 0 1
737 29 2 28.648607568657187 12.063619282662938 1.8980851336076934 -1 -1 0
736 29 1 29.662941677098708 11.927507501135771 1.6831597046254525 -1 0 0
1651 64 2 1.9719884389153934 13.48134754671548 1.9047790393141248 1 0 0
1650 64 2 2.631628678657899 12.78820349009878 1.7387504619195546 1 0 0
1652 64 2 2.4949310096318853 14.065725809504022 1.3213184743093505 1 0 0
2166 84 1 10.034693947743088 13.29065570775475 1.7353847211147315 0 0 1
2167 84 2 10.515083124962102 14.302275315489496 1.8873125998539098 0 0 1
2165 84 1 10.486481805076892 13.094114338710822 2.4814829014675293 0 0 1
595 23 3 12.515979609636355 14.29967321326117 1.4575946872537937 -1 0 0
2750 106 2 13.456308324112474 13.867204164212446 1.8237835058646512 1 -1 0
860 34 1 17.86537453534257 14.653954316941642 1.9932134850832537 -1 0 1
437 17 3 24.59826888910417 13.41601838749115 1.9753106852267779 0 0 0
436 17 2 24.738412940850015 12.54343355325343 2.1805574924712015 0 0 0
435 17 2 25.459667823123144 12.184169472231828 2.560942246607918 -1 0 0
434 17 2 25.449670089262085 11.516990201724115 1.8127531750750823 0 0 0
1021 40 1 27.753985900108876 14.28100642702593 1.2858518878611895 -1 0 1
1020 40 1 28.061868047576635 13.738817784163508 2.004798517757443 -1 0 1
974 38 2 1.369087817420465 15.92399161486474 1.9029865319636206 0 0 1
1654 64 2 3.691938594571284 14.89141651941425 1.8472445406222067 1 0 0
1653 64 2 2.867912567200202 14.28250931949894 2.158999097144081 1 0 0
1655 64 2 4.586376888319904 15.032925650517688 1.287633920340339 1 0 0
1656 64 2 5.112008090327599 15.456180927918377 0.8988114778506636 1 0 0
597 23 3 12.56294697943245 15.761758368046493 0.3079420790590322 -1 0 -1
598 23 3 11.906761711442176 15.698684661809658 1.13492193402879 0 1 0
2751 106 3 13.286087285257862 13.122967870232046 2.5173353439597097 1 -1 1
2748 106 2 14.165473011912983 14.872820331945178 0.9962009231795989 1 -1 0
2749 106 2 13.407424460251539 14.735002301859732 1.424626559038209 1 -1 1
859 34 1 17.03590374570053 14.507140519554476 2.3798537159413145 -1 0 1
861 34 1 18.0354153914021 13.907950611234842 2.4438522634286137 -1 0 1
862 34 1 18.023628810409566 13.613435005782383 1.428223630347485 -1 0 1
1024 40 2 27.82380762154612 15.356939972719655 1.6895562904739372 -1 0 1
1023 40 2 27.14970756406179 14.692917821837195 2.126483224135419 -1 0 1
1025 40 2 27.189478522490948 14.726268698098576 1.9858995611377717 -1 0 1
1026 40 2 27.434194820488937 14.660718929453656 2.9013551382009695 -1 0 1
1029 40 2 29.34970925543811 14.56064432523686 2.6689040212687836 -1 0 1
971 38 2 0.977071422065199 17.08487979012435 1.4074903937816554 0 0 1
1658 64 2 4.698913768135035 16.550020192288496 1.038071154774238 1 0 0
1525 59 2 11.42383034209756 17.481680902194924 2.6451542641898174 0 0 1
870 34 2 17.659732369258197 16.02574150320475 1.5891359549816493 -1 0 1
868 34 2 19.122459888355124 16.94890312271468 0.5103659418842851 -1 0 1
869 34 2 18.077334797429288 16.596185150989953 0.8888668080334372 -1 0 1
2792 108 2 21.955851322047053 17.49387643912625 2.328389847909966 1 -1 0
986 38 3 29.370556143876836 18.110375096464452 1.3875491892523755 -1 0 1
987 38 3 29.424067442537023 18.929290103304215 2.0798178105471132 -1 0 1
1526 59 2 11.507764630466149 17.460797966301175 1.5166709238796392 0 0 1
1522 59 2 9.672372458611072 18.036510634521402 1.4690380008305821 0 0 1
1527 59 2 12.34314640592715 17.99776499868767 1.933153736547959 0 0 1
1524 59 2 11.082531925446595 18.180909718246742 1.8751204792237384 0 0 1
2793 108 2 21.65588063199327 17.525270285321877 1.6882680328474844 0 -1 0
2794 108 2 20.882712480371904 16.969866140790447 1.4050072363637112 1 -1 0
2455 95 2 26.819987410020648 18.16472724029425 1.7229498841740254 0 0 0
2456 95 2 26.360242138128772 18.681855365294016 2.561395409061644 0 0 0
988 38 3 28.6660703148492 19.686107056464216 2.5079657679233875 -1 0 1
2620 101 2 7.175217349389813 20.40965717837216 2.080539458909156 1 -1 -1
2622 101 3 8.452293262019984 20.466606537983914 2.0666668116695446 1 -1 -1
1521 59 2 10.106908846314031 19.04346768488951 1.731067919722003 0 0 1
1520 59 2 10.062841157778443 19.90732377874847 2.3101877310582144 0 0 1
2454 95 2 26.384081395541337 19.03097529641153 0.956381803134718 0 0 0
2457 95 2 27.168425912987686 18.47529004547459 2.890878591541042 0 0 0
2453 95 2 26.92215498015744 19.073172499460153 1.8463555843666302 0 0 0
2613 101 2 4.538572057774306 20.046512840587525 0.42943420606562993 1 -1 0
2621 101 3 7.63396924380357 20.990609602072965 1.7744223270513053 1 -1 0
2623 101 3 7.963643676140969 21.073344762117678 2.563436423669335 1 -1 0
2446 95 1 26.372633800063177 21.2751067520525 1.2456427228944342 0 0 0
2450 95 1 27.41628911597715 20.337192301889754 1.1699483796002967 0 0 0
2236 86 3 0.5137826516773615 21.518504458121903 3.2610401004268126 1 -1 0
14 1 2 3.7426075274419954 22.23946163765831 3.2255531438706027 -1 -1 0
15 1 2 3.2274332005428694 22.648129247149928 2.4097942357488824 0 -2 0
17 1 2 3.8315043152041874 21.18549198267204 2.467075821358258 0 -2 -1
18 1 2 3.0092074621695257 21.716183962191906 2.0782364700296183 0 -1 -1
1798 70 1 7.568232228836948 22.96664864666561 2.3495840669689896 0 1 1
1806 70 2 10.160129001195426 22.549918811879284 0.9879087812361093 0 1 1
1804 70 2 8.649641194367678 22.987187208762702 0.6426819936359781 0 1 1
2447 95 1 26.22345632629528 20.308975792377566 1.2772730601051705 0 0 0
16 1 2 3.810571634812721 22.189641082080758 2.8464860580594973 0 -1 -1
1795 70 1 7.099824224679508 23.673913029511635 1.9388919465917513 0 1 1
1796 70 1 6.192539151157429 23.223843733291826 1.5819016981913556 0 1 1
1797 70 1 7.171037587912515 23.373562850834077 1.599601095776483 0 1 1
2094 81 2 5.777119997512152 25.449999106960135 1.7019422112073803 1 -1 -1
2093 81 2 4.647333991657165 25.49456617296023 1.1409890347729457 1 -1 0
2095 81 2 6.555720791311583 25.68242775483764 2.366891907876725 1 -1 0
2096 81 2 6.671039665483797 26.11299236258806 3.3456076836063007 1 -1 -1
2097 81 2 6.2423209238520645 25.89124765565846 2.456369715546208 1 -1 0
2333 90 2 6.426762068678651 28.340139255136226 1.8458350111154327 1 0 1
2329 90 2 7.379026279318703 26.49719378604154 1.144701510489827 1 0 1
2330 90 2 7.688894933644049 27.431105820905934 1.0534545351081013 1 0 1
2983 115 2 28.457385792355918 28.598221507755703 1.7971006719319251 0 -1 1
789 31 2 9.953731680723108 29.317288594366232 2.1860870177707588 0 -1 0
787 31 1 11.080605973626142 0.31182662390712895 1.7201743157428457 0 0 0
786 31 1 12.058392362485211 0.4579427321830355 2.0726646895120378 0 0 0
1829 71 2 23.967619188562832 28.511529714989276 0.781443829171229 0 0 0
2990 115 3 27.358106851709437 0.3196177523003766 3.694676089292442 0 0 1
2984 115 2 28.092367586037327 29.51364435750353 2.2426506153296097 0 -1 1
469 19 1 15.555721450426253 0.4013399702982284 3.648331076930851 -1 0 1
796 31 2 6.3689739518146 2.614085516885232 2.5385614418335294 0 0 0
795 31 2 7.32356833770562 2.2768573410265733 2.3347892775025856 0 0 0
1565 61 1 7.878021782547987 2.951704307286323 4.813397378650743 1 1 0
471 19 1 15.052369229218233 1.6692963163867085 4.073035354661679 -1 0 1
472 19 1 14.682809393836253 2.3881999987680085 4.514633932634212 0 0 1
798 31 2 5.643197377392571 3.7133046326584567 2.7199563505545448 0 0 0
803 31 3 4.670009887675917 4.808413444084411 3.973008944959406 0 0 0
2541 98 2 9.576826960020506 4.555859949618614 4.601762632305804 1 1 0
2544 98 3 8.917191242798333 4.003803831873561 2.829359823283514 1 2 0
2543 98 3 9.393930172641378 3.148388515659408 3.262067949911973 1 1 0
856 33 3 19.133625183439793 3.876710423924721 2.8246514395723845 -1 0 0
802 31 3 5.480478760794417 4.886786232659973 3.292592144498982 0 0 0
804 31 3 5.623634684329829 4.405844962236669 3.956719308708293 0 0 0
2545 98 3 9.22413276741758 4.757831980665191 2.074692162374226 1 2 0
635 25 2 15.445166886632606 4.113034496261201 3.172839722864011 0 1 1
634 25 2 15.62348160665853 4.744990837435616 3.568498782931633 0 1 1
636 25 2 16.062468740376847 5.003054143887627 3.1463855609282536 0 1 1
850 33 2 19.973828269110548 6.19822805009471 3.5438408776943846 -1 0 0
844 33 2 18.17125542805334 6.820593044267203 4.730981313915272 -1 0 0
855 33 3 19.064473628590708 4.1828249800098 1.8379198291796788 -1 0 0
849 33 2 19.392018307567376 5.971999849540024 4.315854907617564 -1 0 0
847 33 2 18.758028772082547 5.883825812269663 4.381619072415976 -1 0 0
2399 93 1 27.88523246554713 4.425426780413424 2.019736975404278 0 0 0
129 5 3 25.893680133861004 4.483056990556109 4.373327751958915 0 -1 1
128 5 3 26.26289996762123 5.27950216090836 4.301538933786373 0 0 1
127 5 3 26.554398597039924 6.155211213757604 4.559820115405856 0 -1 1
504 20 2 3.130730241783511 7.27031586894835 3.2719948448075034 0 0 1
502 20 1 3.977995805133057 7.714407611013355 3.6891894386757516 0 0 1
500 20 1 4.260138039639209 7.965445028762002 3.012587452894563 0 0 1
638 25 2 17.033642974514546 5.394974853547791 1.821878025860929 0 1 1
845 33 2 17.36037117176328 7.230599174307441 5.021666150472551 -1 0 0
848 33 2 19.04305942555168 6.690202017419076 4.896515179419805 -1 0 0
119 5 2 25.02404588571685 6.65082591568546 5.048353675206692 0 -1 1
505 20 2 3.6988401428259188 6.962401901766282 2.6572784432560224 -1 0 1
503 20 2 3.347023731370255 8.107868163211009 2.950710780805481 -1 0 1
499 20 1 4.289816510915249 8.115866549044886 3.9120457374745525 -1 0 1
501 20 1 4.797117233393303 8.292416919568073 3.8898680294659256 -1 0 1
2189 85 1 10.734893272108746 9.438754747596859 3.6653871763419597 0 0 1
2187 85 1 11.368007912475338 7.610668486300464 3.7584220039013267 0 0 1
2185 85 1 12.497989438595956 8.908982814203853 4.236464425061917 0 0 1
2365 91 3 18.47714086019071 7.677450826242246 2.3621055897777956 0 1 0
417 17 1 28.144610976474556 8.006881849371231 4.5731871977212935 -1 0 0
418 17 1 27.43007388315466 8.381543099535326 4.067382613712044 0 0 0
1641 64 1 4.114623203249957 9.559697498804944 3.9734047295723474 1 0 0
496 20 1 5.2056186643146365 8.883908088077936 3.034430028649258 0 0 1
1640 64 1 4.539222173529564 8.866842084432502 4.81279283141203 1 0 0
495 20 1 6.08457740109064 8.692518492494882 3.660603318222988 -1 0 1
2190 85 1 9.726011135607921 9.698812367400201 3.303545101505496 0 0 1
2188 85 1 11.033403997777475 8.60238807543733 3.4956959502355884 0 0 1
2186 85 1 12.026057542904377 8.052591375729094 3.573927874335249 0 0 1
2366 91 3 18.988912158975445 7.74992111938306 3.2525037117816034 0 1 0
2353 91 2 20.40233619545058 8.707688826684933 2.844076710111397 0 0 0
2352 91 2 20.22349131288907 9.592198057851125 3.3405362709141935 0 0 0
1643 64 1 4.273925353852696 9.669567365286289 2.325823803786447 1 0 0
1645 64 1 3.499723641787006 10.490336913222892 2.7338911375776074 1 0 0
1642 64 1 4.529211148344663 10.265037805703232 3.2079464406340703 1 0 0
428 17 2 25.783439652762244 11.357519735034707 3.7311321102883035 0 0 0
427 17 2 26.78120430407133 11.182786947652545 3.7434510182419634 -1 0 0
429 17 2 25.880870745293358 12.302809493372862 3.858970368695244 -1 0 0
430 17 2 26.461751645946915 11.825767615646733 3.392613752447803 0 0 0
1036 40 3 1.1118370740993957 14.678043899639453 5.628358919458238 0 0 1
1038 40 3 0.8875592127115217 13.701945696845055 3.9783898473701957 0 0 1