LAMMPS data file via write_data, version 29 Oct 2020, timestep = 120000

2500 atoms
3 atom types
2375 bonds
6 bond types

0.0 30.0 xlo xhi
0.0 30.0 ylo yhi
0.0 30.0 zlo zhi

Masses

1 1
2 1
3 1

Pair Coeffs # lj/cut

1 0.055 1
2 0.055 1
3 0.055 1

Bond Coeffs # harmonic

1 50 1
2 50 1
3 50 1
4 50 1
5 50 1
6 50 1

Atoms # bond

1944 98 3 23.750627837017376 0.8470579724851853 29.993254433685337 0 1 0
1943 98 3 24.61349899771016 1.1593311483451538 0.1105293650703344 0 1 1
1942 98 1 25.615271387707242 1.5244928108320304 0.23371006834156252 0 1 1
2000 100 2 28.256975856913435 1.97121218001123 1.3029875852140422 0 1 1
1995 100 2 29.114232370235396 1.1135299678671193 1.7698467764071202 0 1 1
1994 100 2 28.535501417935876 0.5908015571486721 1.136740321860072 0 1 1
853 43 2 19.416773875259892 3.3800801370496116 0.49130676556967884 0 0 1
852 43 1 19.546054316280205 2.52677169380279 0.5506246832430294 0 0 1
851 43 3 20.102130813435032 2.7432368021363054 1.4274847518494025 0 0 1
1945 98 1 23.476365458473712 0.9224596481470388 0.908255635962866 0 1 1
1946 98 1 23.040137015131783 1.9349855905593771 0.8757330308394113 0 1 1
850 43 3 20.091968730751393 2.521059598856213 2.3386935560781748 0 0 1
1561 79 1 13.818129526587185 5.659483394159513 29.842983305748472 1 -1 0
1563 79 3 15.120457450187146 6.405317578385669 0.21793824703762718 1 -1 1
517 26 2 17.940039089988204 5.38611564512509 0.009661185359267693 0 0 0
105 6 1 21.888600618814568 6.373473374433374 0.679212204048528 0 1 -1
1960 98 2 27.638167248526315 4.840433550053944 0.5402587109560008 0 1 1
1958 98 2 26.404402924519456 5.297794734413874 1.7046355997535538 0 1 1
1959 98 2 26.6220947231136 4.867737203632994 0.7687051530763244 0 2 1
2016 101 2 1.089623054267418 6.400052467642425 1.7488922915681755 1 0 0
909 46 1 5.049947019410184 5.956790139521685 1.7899392873639917 0 0 0
911 46 3 5.109627908567002 6.685733524813162 0.771764187656233 0 1 0
912 46 1 5.91388941450902 6.211417855238944 0.1410612885709911 0 0 0
1562 79 1 14.658204144616201 5.558178785321852 0.7577441548361914 1 0 1
1570 79 3 14.029930146760345 8.344295160006881 0.8093200112374563 1 0 1
1571 79 3 13.160042509452964 7.747749597476803 0.5194169342596656 1 -1 1
1564 79 3 14.874846594980268 6.576676187426003 1.2118939523999033 1 0 1
1565 79 1 15.36248880970177 7.306025188977838 0.5678536481850168 1 -1 1
1566 79 1 14.360142266942841 7.577255913875419 0.2272521577029755 1 0 1
516 26 2 17.67768894077129 6.278607913502505 0.33434800488108307 0 -1 0
515 26 2 18.42248625168565 5.920379672283763 1.0424602928020494 0 0 0
104 6 3 21.315634747566353 5.590606740344814 1.11929963809279 -1 1 -1
106 6 1 22.05007114152022 7.359952634993265 0.9055364268064655 -1 1 -1
108 6 1 21.72426278288855 7.3680295717669155 0.8842737470129862 -1 1 -1
2017 101 2 1.5286887940406155 7.184552618628908 1.5558831239218736 1 1 0
2018 101 2 1.6710416039839389 8.205816971061688 1.3344662589052543 1 0 0
1569 79 1 14.239214847548515 8.766027346382337 1.6562453927048624 1 -1 1
514 26 2 19.34464517146092 6.090589467288378 0.5299168977029216 0 -1 1
1130 57 3 23.75754016610091 8.255932210339617 0.13547117281492319 0 0 0
2019 101 2 2.038583870696514 8.426896712191096 2.2401925861447003 1 1 0
2020 101 2 2.5882239360143617 8.297062527453487 1.4817839425938746 1 1 0
503 26 3 18.684142118701192 10.125655961276168 1.237983888190988 0 0 0
1131 57 3 23.603512308911398 8.667566099983476 1.0569446590015878 0 0 0
1133 57 2 23.826423596072512 8.882938760046867 1.577762923446932 0 0 0
1128 57 1 23.052641386874804 9.702247589424823 29.910735042597008 0 0 -1
1129 57 1 23.538768747287328 8.982564470229777 29.562669631611673 0 0 -1
1132 57 1 23.475392579627623 9.355351149659118 0.6466828439628873 0 0 0
505 26 1 18.46786724627735 9.82985115092367 29.932377026666952 0 0 -1
504 26 3 19.076762115354516 10.596205300381211 0.3937255540021045 0 -1 0
1121 57 1 21.393440442207567 9.834480944807103 0.5310163946097599 0 0 0
155 8 2 2.941103791506959 10.798807358276047 29.912231766454696 0 -1 -1
157 8 2 2.9350955718736587 11.113865471968742 0.7847145950549296 0 -1 0
154 8 2 3.9743011787051006 11.156093267341335 29.72010817063216 0 -1 -1
152 8 1 4.540958005078063 12.356913376973846 0.9292024241436898 0 -1 0
151 8 3 5.043790738159664 11.444824114247652 0.6830060443306385 0 -1 0
153 8 2 4.314127569179065 11.407381674786272 0.692039396721281 0 -1 0
556 28 2 8.470484988288769 13.221313392675368 1.2127005344348205 -1 0 0
156 8 2 3.8296522306038505 10.82771131673143 0.369434116937016 0 -1 0
557 28 2 8.252725065011822 13.1074948333203 0.18727186772347915 -1 0 0
555 28 2 9.042514852166603 12.62203375885996 1.678220187076298 -1 -1 0
559 28 2 7.815727740064116 14.221952596309443 0.4421086310391384 -1 0 0
558 28 2 8.751807327901236 13.709608473742199 0.6725105805372773 -1 0 0
1218 61 2 26.01621281401252 14.171050545316657 1.2995133606317166 0 -1 -1
1219 61 2 26.364232285751097 14.32954329124854 0.5507488932088735 0 -1 -1
1220 61 2 25.513201591639735 14.545952766646392 1.0920873810225193 0 -1 -1
932 47 1 11.186350601604625 14.351109564746494 1.0414710344847535 0 0 0
933 47 2 10.781903675399015 15.264397179938047 0.815071166544266 0 1 0
1217 61 2 24.928048493445655 14.36593961370198 1.1621701394215138 0 -1 -1
1922 97 1 23.596573455220042 16.29008781771155 0.856886303163157 0 0 0
1923 97 3 24.119230374666763 16.27852185458036 0.19488084968934732 0 0 0
1925 97 1 22.850060049888686 16.814999493742 1.0480367657507008 0 0 0
1927 97 1 23.96407008420387 16.859742332809013 1.8186911653362625 0 0 0
1928 97 1 24.201136232688565 17.3623633225939 1.046293885167989 0 0 0
2343 118 3 27.865983989665178 19.03796990204479 0.3051653324861419 0 0 0
1559 78 2 14.465847403948706 20.52508269381551 1.2316521017495137 0 -1 0
2039 102 2 17.83374787668572 19.123700245417396 29.821000043834854 0 -1 -1
2040 102 2 17.62888501661975 19.35610245555632 0.9865241878759705 0 -1 0
2038 102 2 18.461352099201047 19.88434094055726 29.815150030044602 0 -1 -1
2037 102 2 18.93187534645357 20.344208103734196 29.176245205289806 0 -1 -1
2035 102 2 18.884885726684665 20.436761328094196 29.45910109761384 0 -1 -1
2350 118 3 25.88696711661532 20.02763533908895 0.5261894344807273 0 0 0
2351 118 3 26.608200815869786 20.427159530304376 1.017530415113772 0 0 0
2344 118 3 27.10574474749649 19.16011041060807 0.5897939577871119 0 0 0
2342 118 1 27.96801757294874 18.75098367978337 1.0678714155582436 0 0 0
1560 78 2 14.017031629450809 20.181818563827786 1.8968184137111523 0 -1 0
1558 78 2 14.010421873439237 20.681295499619413 0.32644301960142386 0 -1 0
1556 78 2 13.076528022053846 21.851834807874546 0.8201661234493638 0 -1 0
2360 118 2 23.569930427806018 21.658121008821194 1.8861098946559833 0 0 0
2359 118 2 24.397450511135997 21.728637714200694 1.061553556987013 1 0 0
2358 118 2 25.133116128582948 20.991043181153316 0.8225031532378476 0 0 0
2357 118 2 24.47373769269348 21.195458430484145 1.5542585119231636 1 0 0
2349 118 1 26.53344265862878 19.903010041245473 29.74072513984281 0 0 -1
707 36 1 6.8494690267437255 22.546586168274107 0.7631325930936443 -1 -1 0
708 36 1 7.098107568145947 22.777063343996108 29.975187991322457 -1 -1 -2
704 36 3 8.415897546377236 21.829562749120313 1.3625832374882259 -1 -1 0
1238 62 2 18.188920545261272 23.045430415526415 1.6120750561486636 -1 0 0
2356 118 2 25.404680818546097 21.162424325690267 1.4841136330370068 0 0 0
2355 118 2 26.160054366244605 21.06126257675648 1.7525198028615188 1 0 0
709 36 1 7.098224459904054 23.277829584467668 0.8482201105186851 -1 -1 0
715 36 2 5.600896375394767 23.786445964366568 1.1528870397863875 -1 -1 -1
713 36 2 7.347351884912754 24.055994993087307 1.7151237724959203 -1 -1 0
710 36 3 7.418933933627524 23.90645538121 0.1660129367930149 -1 -1 0
712 36 1 7.543776495742186 24.232630901517304 0.8339336305757825 -1 -1 0
1239 62 2 18.90104567562373 22.486028044499864 2.13132361074283 -1 0 0
1236 62 2 19.100774729284403 23.76679486777663 2.3758654327049933 -1 0 0
717 36 2 5.7407430510061905 24.13934675450819 0.9329430687830594 -1 -1 0
716 36 2 6.5736539160469905 23.860444383920772 1.3338878342676932 -1 -1 -1
718 36 2 6.158653837243456 24.96451917983674 0.8196032661594671 -1 -1 0
2259 113 2 14.782165526121018 25.769879865342684 0.19265363760517445 1 0 1
2260 113 2 14.890427813238269 25.20142258418764 1.0747818360963557 0 0 1
2254 113 2 15.207123509025571 26.381513182851105 29.341640404628087 0 0 0
2250 113 3 16.43431405413497 26.79366022001542 0.04542948403838826 0 0 1
2253 113 2 15.755874670225143 26.14958137143613 0.0039028598841578128 0 0 1
2252 113 1 16.850688864415993 26.44396544510564 29.922802757014058 0 0 0
2251 113 3 17.334765438169715 26.396035655738586 0.5094391039841263 0 0 1
1941 98 1 25.46614087912796 0.6628857421695004 29.615903271354597 0 1 0
1999 100 2 28.656306497420655 2.5869077688142474 2.0166728445910125 0 1 1
1996 100 2 29.19980868267225 2.0339922342644545 1.9657107355779662 0 1 1
1947 98 1 23.755202417694946 1.0598233875538359 0.9975760157275428 0 1 1
1948 98 1 23.83400107410919 0.9842537835980838 2.004115331721427 0 1 1
1949 98 1 23.908774956870648 1.9893044122647736 2.1460558242112486 0 1 1
1950 98 3 24.937456376446725 1.9111719747092852 2.4049600763123777 0 1 1
1951 98 3 24.69075319616044 2.052726865613492 3.217896068116621 0 1 1
1998 100 2 28.00234505677268 2.8052281367223864 2.6192180270180487 0 1 1
1997 100 2 28.94183461728674 2.5898289545617095 2.4665289671693436 0 1 1
1525 77 1 14.81917605366129 4.356767732662144 3.4278440306669364 0 0 0
1521 77 1 14.899152914519162 2.6388552227388296 3.2080961782658384 0 0 -1
849 43 1 20.70783181276853 3.0342962340567836 2.596011934020448 0 0 1
1953 98 2 25.556578118715397 3.3140981585316593 2.8379774881997535 0 1 1
1954 98 2 25.035037233846968 4.065588221146268 2.523278430013541 0 1 1
2010 101 3 1.68220098500589 5.2822899160499 2.817684196640866 2 0 0
910 46 3 4.805235145311155 5.75715127377501 0.9119293656604928 0 0 0
102 6 1 20.641441628153085 5.769077665435382 2.115470216492657 -1 1 -1
101 6 1 19.8771002557814 5.3630477714225115 1.515361731419408 0 1 -1
1956 98 2 25.099761266016237 4.167584273336367 2.3091292151767915 0 1 1
1957 98 2 25.753839590009353 4.877571879139723 2.2606242123384734 0 1 1
1955 98 2 24.31614993616794 3.7386268876382647 1.8439839283144823 0 1 1
2014 101 2 2.0297266503420928 6.450555175182865 1.4500628574143328 1 0 0
2013 101 2 2.5074925009670688 5.978957757417976 2.249120311862473 1 1 1
908 46 1 5.944104184827381 6.1726772469015 2.3814333829388685 0 0 0
907 46 1 6.109933358322239 6.848412084655918 3.02116327861991 0 0 0
906 46 1 6.370865837484574 6.319402507263524 2.3117397986896067 0 0 0
905 46 1 6.148712727624341 7.221118008845251 1.9342935255690672 0 0 1
904 46 3 6.826969385168445 6.427423925235045 1.666034785195411 0 0 0
902 46 1 7.68367811922231 5.790511095519758 1.771597472204914 0 0 1
901 46 1 7.5908740806664365 5.839895010165549 2.814577513766341 0 0 0
1567 79 1 15.049513556068735 7.92634528639746 0.7644679548513452 1 -1 1
103 6 3 20.204036885344635 5.531889968032121 1.4457868578128619 0 1 -1
109 6 1 21.122410634382742 6.944266931232295 1.3859502042787621 0 1 -1
110 6 3 21.733563195972152 7.050845298936587 2.2196431796064795 0 1 -1
2015 101 2 1.5431185378664871 5.53452437624781 1.5683898467847281 1 1 0
1568 79 1 14.916548597747653 7.732134091220972 1.6919941059080177 1 0 1
111 6 3 22.34860462914968 7.794466902653074 2.708837017011276 0 1 -1
112 6 1 22.121495313898272 6.83275743867262 2.7657022954414026 0 1 -1
1135 57 2 22.408264895588506 8.764860390174457 1.4003647898787634 0 0 0
143 8 3 6.741423182070041 9.841278121759677 2.838311523349657 0 -1 0
144 8 3 6.5618341704308225 10.04703405661338 1.9484656094130621 -1 -1 0
544 28 3 9.857844539725408 9.808771789083286 3.4067031055511805 -1 0 0
502 26 1 19.50896677150099 9.871376868711543 1.4757550587540798 0 -1 0
1134 57 2 22.969930787635292 9.386702284976518 1.1919451436324542 0 0 0
1136 57 2 23.161659789861783 8.56996109931788 2.0200334642932627 0 0 0
160 8 2 3.734967019635352 11.6688072356195 1.812910892589766 0 -1 0
159 8 2 2.864238643270255 11.523694510075323 1.3812633561199015 0 -1 0
149 8 1 4.560016493879568 11.805432398710154 1.9913732263304582 0 -1 0
148 8 1 4.785617067368089 11.096255514784584 1.3733526964668168 0 -1 0
146 8 1 6.133686704109735 10.4705337253411 1.202628692722758 0 -1 0
141 8 1 6.964159182991061 9.613179638567814 3.524498614087343 -1 -1 0
142 8 1 6.05986911279907 9.499635912268923 3.4663231208368788 -1 -1 0
145 8 1 5.845192232388118 9.600443794993122 1.3492427324141074 0 -1 0
549 28 1 9.433795588596842 10.992558579265552 3.483456739356653 -1 -1 0
552 28 1 7.7513625033162645 11.431069079530173 2.4935575464294124 -1 0 0
921 47 1 13.747498284203113 10.331401593265317 3.2817524624518 0 0 0
923 47 3 14.739612294751135 9.945957136511602 2.001065431807804 0 0 0
501 26 1 19.5320891912621 9.203797160246214 2.082447612777457 0 0 0
158 8 2 2.036836256045241 11.68865175960366 0.8213834382136527 0 -1 0
150 8 3 4.645892261696712 10.875212796482304 1.3318885742016364 0 -1 0
147 8 1 5.850373428185036 11.43868093266482 1.2920086048022332 0 -1 0
554 28 2 8.991745613263202 12.078146429342521 0.9396614397189778 -1 0 0
553 28 2 8.449056900892533 11.726394918772243 1.7558255138218744 -1 0 0
927 47 1 12.880447939326299 11.402102586246588 2.8388499464316688 0 0 0
925 47 1 13.790310872831562 11.355263697621483 3.0325355613253286 0 0 0
929 47 1 11.329757541255539 12.58732569326389 2.4671527226715972 0 0 0
1216 61 2 25.250853809677242 14.260694986684802 2.1518722978278038 0 -1 -1
931 47 3 11.44276933050526 14.445349283139286 1.8772153697622143 0 0 0
930 47 3 11.277440074658374 13.569870042103693 2.5124134824138764 0 0 0
1214 61 2 25.602105628162477 14.225966897781658 3.5508929235109044 0 -1 -1
1215 61 2 24.92739699298373 14.795412298101766 2.947447327797837 0 -1 -1
1924 97 3 23.099346946339427 16.20773113047434 0.026305050921209824 0 0 0
1926 97 1 22.984043792845924 16.392355541063573 1.7707689050211957 0 0 0
1929 97 1 23.722615095195998 17.90347623103692 1.7064660805658047 0 0 0
1931 97 3 23.75278769745853 18.02898848774881 2.4195119435266115 0 0 0
1930 97 3 22.950450991716398 17.358524927736646 2.29452886155483 0 1 0
1939 97 2 21.22657254498403 18.890065490807736 2.5019265352239652 0 0 0
1937 97 2 22.132282741845287 19.25737760145335 3.8663800041495877 0 0 0
2352 118 1 25.865430761927772 19.795596221854122 0.9810629745563997 0 0 0
2341 118 1 27.80927626132499 18.894578461625663 2.1237636751053377 0 0 0
1222 62 1 19.731742768463942 21.54860654204678 2.048707628370336 -1 0 0
1221 62 1 19.047084101128558 20.84301546024026 1.629994754354645 -1 0 0
2353 118 2 26.394194225993413 20.703523235056217 0.6903485837232591 0 0 0
980 49 2 4.294410982730456 22.085752135812427 2.0427229326223393 0 0 0
701 36 1 7.244062194057973 21.867257627370748 1.6305872745263803 -1 -1 0
702 36 1 7.450647074865426 21.169733571334323 2.3598096676463407 -1 -1 0
706 36 1 7.596990211952375 23.05109600095659 0.9743972480064679 -1 -1 0
705 36 1 8.257644857995892 22.669939514771173 1.4947172745715143 -1 -1 0
703 36 3 7.624541035107611 21.77033891695173 1.793539838599904 -1 -1 0
1968 99 1 14.142534573668962 22.42923876241803 2.2278259244972776 0 -1 0
1967 99 1 13.783483393234508 21.69463727405171 1.5388654266135888 0 0 0
1969 99 1 13.371630831266165 22.51346477964885 2.8717294643095816 0 -1 0
1963 99 3 14.649177571262735 23.91332613969392 2.5710579892584153 0 0 0
1964 99 3 14.651362272044526 23.786568794267893 3.5164827095257305 0 0 0
1965 99 1 14.390460214506104 23.040740801899044 2.6561304592166826 0 0 0
1223 62 3 19.691058074871343 22.21988974149957 2.8110829510965623 -1 0 0
2354 118 2 25.704653240912418 20.431923164044367 1.4614993810385069 0 0 0
714 36 2 6.498308193191968 23.888591680829215 1.260716035433657 -1 -1 -1
1966 99 1 14.061680529512016 22.372789492394833 2.1278279252092105 0 0 0
1962 99 1 14.938699400866609 23.01546129587942 2.837663330008155 0 0 0
1961 99 1 14.13070103428805 23.457702318629163 3.5843636829873557 0 0 0
1240 62 2 18.434875356561424 21.40465578995679 1.7723752233244539 -1 0 0
1237 62 2 19.226392216545474 22.821455088677027 2.008839269534581 -1 0 0
1224 62 3 20.654111944156302 22.67362577243718 2.3164700391892166 -1 0 0
1225 62 1 19.83167158305413 22.877450720836084 2.725728481487226 -1 0 0
1226 62 1 19.546955705170305 22.02675285458091 2.891025445345042 -1 0 0
720 36 2 5.685584627492384 25.790735552437187 0.6758910880929343 -1 -1 -1
719 36 2 5.520550101631775 25.232016806221107 1.5603948166477086 -1 -1 0
1235 62 2 19.556144266319116 23.64717683694553 1.3296473634527484 -1 0 0
1234 62 2 19.836199332779668 24.40637241680238 2.034230865767444 -1 0 0
1232 62 1 19.06858084234576 24.50081114551728 3.3496859690953165 -1 0 0
1231 62 3 19.916708371159984 24.143519787702395 2.9291630881947017 -1 0 0
564 29 3 14.288703336960715 1.7357440164920759 4.517402304544922 -1 -1 1
563 29 3 14.927067634774705 2.152665098981219 3.9599427868253474 -1 0 1
562 29 1 15.377780777919769 1.745617039533027 3.2408772411795033 -1 -1 1
673 34 2 24.966779673415605 2.6110611657017873 4.64414122813559 -1 0 1
675 34 2 25.624841047357307 1.7337532908434725 5.517194008108819 -1 0 1
1523 77 3 15.019522355067345 3.452655703759882 3.0118009251160225 0 0 -1
1524 77 3 15.093113206359346 4.158699300840696 2.3795388159669923 0 1 0
1522 77 1 15.674701962062716 2.856838120282511 2.604060381727498 0 1 -1
848 43 1 20.447704474367494 3.9822338644343303 2.8809938625567995 0 0 1
847 43 1 20.104473946600983 3.1458280739646334 3.4914237877191403 0 0 1
1952 98 1 25.109069692498004 2.6553333242164556 2.8092069045227004 0 1 1
2011 101 3 2.1212952335047004 4.535868100495694 3.347569095767897 1 1 1
2012 101 1 1.7978018736884533 5.518500608969107 3.162658413670709 1 0 0
2008 101 1 2.4174775351380293 4.383878211106271 3.969928662267583 1 0 0
2009 101 1 1.9877735792961955 4.468716389916362 3.074688893558024 1 1 1
2007 101 1 2.201878453263976 4.176857460310875 5.034526288119314 1 1 1
1526 77 1 14.74371121461346 5.047891332354798 2.533229203406416 0 1 -1
1527 77 1 15.194521433783539 5.467412451703934 3.3003523404475357 0 0 0
1528 77 1 15.144125157904373 6.275627791443012 2.7434728759130884 0 1 0
1530 77 3 16.134746210664787 5.587792749368769 3.682690371855628 0 1 0
118 6 2 22.20316080037009 6.249666403683489 3.4629362060821354 0 1 -1
120 6 2 21.655583297157296 4.817493636410161 3.6978540091731045 0 1 -1
903 46 3 6.996069324675207 5.819718064070676 2.3065238964047414 0 0 0
115 6 2 21.825235475738268 7.051821395227774 3.218934334575507 0 1 -1
117 6 2 21.49312026370744 7.011638480241629 3.846057820311349 0 1 -1
116 6 2 20.92696353709652 7.298790778110416 3.1964086474636337 0 1 -1
114 6 2 21.36152834374611 7.284790999704434 3.9235755819359017 0 1 -1
113 6 2 22.516810996842636 7.29037340675587 3.8014132718699147 0 1 -1
542 28 1 8.841049712600512 9.892306006095419 4.387599283501814 -1 0 0
543 28 3 9.229118169226496 9.020724906890534 3.8305711532155504 -1 -1 0
1138 57 2 22.09076421450739 8.889409349974349 2.688560763821202 0 0 0
1137 57 2 22.496571631240183 8.95703649903332 1.8738492887069618 0 0 0
1139 57 2 23.12081347246796 9.339880379670534 3.2533651143343945 0 0 0
550 28 3 9.062863527389899 12.069125161915684 3.347275880037301 -1 0 0
551 28 3 8.507860674910583 11.331672119184168 2.9310869400158395 -1 -1 0
547 28 1 9.879404076166827 11.20871303423977 3.8924197828049047 -1 -1 0
548 28 1 10.402478994622442 11.392173009377576 3.2297251292147178 -1 0 0
546 28 1 10.247852742481816 10.17517441410369 4.197158173116814 -1 0 0
545 28 1 10.67438843085403 10.460926761269485 3.409913142723421 -1 -1 0
924 47 3 14.527726893120136 11.04636225085725 2.35655522967114 0 0 0
922 47 1 13.769339210242128 9.665628882630594 2.354566848795469 0 0 0
313 16 2 17.64422102479267 11.556162203538191 4.50120574126598 0 0 -1
314 16 2 16.558551231703884 11.453574032002269 4.560276668382345 0 0 -1
1140 57 2 23.83180481117346 9.236975254675208 2.4372351226972033 0 0 0
1741 88 1 4.7791684163508155 11.926973700508052 4.643200836940879 0 0 0
926 47 1 13.317918149922196 12.194117231891532 2.6880387268071435 0 0 0
928 47 1 12.219511088971986 12.051876933235924 2.2056988174265157 0 0 0
1208 61 1 23.590419019938757 12.873504117512722 4.58654068126851 0 -1 -1
1207 61 1 22.595593839028208 12.260683735156274 4.606671379810985 0 -1 -1
1759 88 2 6.46955767720792 15.737671116962964 2.4470725441535564 0 0 0
1760 88 2 7.318576880600481 16.310471538949727 1.9835096823381322 0 0 0
306 16 1 16.8177625085749 15.310557509312254 4.856880825812639 0 0 -1
1203 61 3 22.542533169045193 14.347451804163745 3.5558057200498747 0 -1 0
1202 61 1 21.96751712110924 15.034876566182353 2.951486969397358 0 -1 0
1205 61 1 22.564612871214635 13.382011313820088 4.962798433581149 0 -1 -1
1212 61 1 24.653389629915438 15.589213719521652 3.7319858945303377 0 -1 -1
1211 61 3 24.729333582835615 14.53795178825527 3.808948756880582 0 -1 0
1213 61 2 25.42344496929789 14.901928156318332 4.0340784891451955 0 -1 0
2339 117 2 4.829265223157983 14.493641381915165 4.298859679093795 2 0 0
1758 88 2 6.956181915224264 15.456936867583742 3.4250464169999457 0 0 0
1201 61 1 22.81333440952175 14.808761094769679 3.3990683435163187 0 -1 -1
1940 97 2 21.146889097921807 18.31685061607528 1.6416697203883328 0 0 0
1933 97 2 23.28039674442673 18.665411873201123 3.4591381805285697 0 0 0
1934 97 2 23.346343108968448 18.97764256448622 4.435651386690413 0 0 0
1932 97 1 23.582278297498075 17.747959212075806 3.3170736141732187 0 0 0
1979 99 2 12.373481965129512 19.736070082988938 3.627660195119989 0 -1 0
1980 99 2 11.50172371981741 20.1097112741213 3.5290631156407026 0 -1 0
1938 97 2 22.00289356178774 19.279617919205354 3.0725193793300876 0 0 0
1935 97 2 23.103831542734394 19.209095698739244 3.6118089799923894 0 0 0
1936 97 2 22.639263429237094 18.735754651684772 4.28155408560276 0 0 0
1978 99 2 12.588462833792443 20.512135969356127 2.9286678214713096 0 -1 0
977 49 2 2.7968891379118417 21.350185614580532 3.385745931056816 0 0 0
978 49 2 3.769219639097611 21.63183465405123 3.1437984926771896 0 0 0
979 49 2 4.625813486675158 22.045908102814202 2.796942861839016 0 0 0
1977 99 2 12.8170093083856 20.745319860609605 3.802421869697326 0 0 0
1976 99 2 12.832138335241423 21.671007587910562 4.4722322068601095 0 -1 0
1970 99 3 13.538732777432116 22.472003778381698 3.7489951792338663 0 -1 0
1972 99 1 13.711126588849968 22.06195313431957 4.127526167811652 0 -1 0
1973 99 2 13.022464917693114 21.84298319203018 4.476029242478628 0 -1 0
2276 114 2 12.470470816599898 25.105812886256 3.845375230589354 0 0 0
2274 114 2 13.038039826988625 24.36268513838015 4.508520176538161 0 0 0
1227 62 1 19.974345260644075 22.741701699436756 3.461646896381908 -1 0 0
1229 62 1 20.641280372645966 23.471520077979047 3.4467695597103396 -1 0 0
2278 114 2 11.121742909341267 24.441236790812223 4.676679635477515 0 0 0
2266 114 1 16.187241607323212 24.945751680586355 4.510491707024633 0 0 0
1233 62 2 19.658433796491284 25.06416879500669 2.6820347318346363 -1 0 0
1230 62 3 20.626833856176155 24.488025103581894 3.3120216171712693 -1 0 0
565 29 1 14.616255182963972 0.8156107679272504 5.009426163447547 -1 0 1
361 19 1 2.0455696622901924 1.5223490349411781 6.084920863027994 -1 0 0
561 29 1 16.294335056902227 1.5004876251384591 3.3440593396130587 -1 0 1
574 29 2 17.11247501282276 0.41484953598998037 5.006507939225356 -1 -1 1
576 29 2 15.907279917482988 1.7794647363741918 5.2349118988926095 -1 -1 1
573 29 2 16.47994449802188 0.4481803020926989 5.820077535223541 -1 0 1
575 29 2 16.817652564604867 1.401506071271532 5.097202422804814 -1 0 1
671 34 3 23.349316911478287 1.5857044271809624 4.891875848934243 -1 0 1
674 34 2 25.536152947526276 1.736228990940062 4.512388685475249 -1 0 1
677 34 2 27.152679636353092 2.011188801088469 6.276346132241417 -1 0 1
676 34 2 26.511590994160688 1.328689275015107 6.062130065027099 -1 0 1
679 34 2 26.688781880379345 1.0172151610605769 5.082119211131863 -1 0 1
680 34 2 26.547882955890312 0.10459522246519957 4.695020347488673 -1 0 1
362 19 1 1.5056507603947589 1.0490759451198421 5.600275726220525 0 0 0
580 29 2 16.06899249144681 2.600813391822264 3.875231537595696 -1 -1 1
578 29 2 16.467039915498784 2.5983611467470893 4.183045636982553 -1 -1 1
577 29 2 15.606444810310478 2.400040806124177 4.6115558077226835 -1 0 1
841 43 1 18.306427199186576 2.2953078633399473 5.035128101215753 0 0 1
842 43 1 18.7485931249138 1.8846168344211258 5.783872770195635 0 0 1
844 43 3 18.726434966132512 3.047122480660417 4.644243295475223 0 0 1
845 43 1 19.338013636240202 2.3507394432343345 4.782380487305176 0 0 1
662 34 1 22.4262510170514 2.7443478785542776 5.578333988749884 -1 0 1
664 34 3 22.44022918420594 2.289552030244618 7.541472604507623 -1 0 1
672 34 1 24.199417769085745 2.0437106650388626 5.212791474489043 -1 0 1
670 34 3 23.9816542443256 1.8219633760543452 5.4355041870455345 -1 0 1
887 45 1 7.193190572070548 4.291947891637428 6.064621281942249 0 1 0
579 29 2 16.05304704934243 3.369860316556461 4.274309958102376 -1 0 1
1540 77 2 14.425659286497545 3.193099641359773 5.547573805418145 0 1 0
1535 77 2 16.87049006454514 4.678536142757202 4.8631972654810935 0 1 0
846 43 1 19.68249339268646 3.1313565999101014 4.403559652896361 0 0 1
843 43 3 19.088528649234203 2.6495511567086276 5.550489513926285 0 0 1
663 34 3 22.406879838316602 2.5616687836947025 6.591812996898894 -1 0 1
661 34 1 21.86535892143964 3.3150647281845638 6.2994587942146705 -1 0 1
2005 101 1 1.1701341297532537 5.229073202991793 5.486904771319466 1 1 1
2004 101 3 0.2823690639774457 4.928158149450637 5.984237717454484 1 0 0
2006 101 1 1.8002307999532767 5.181780907119799 4.8051282097742405 1 0 0
2003 101 3 29.721674818358913 5.366526743333429 6.73759669927152 0 1 1
2002 101 1 29.68399713357763 5.564933352426571 5.652642233717296 0 0 0
2001 101 1 29.46220531126987 4.957225714529358 4.791600358050292 0 1 1
1536 77 2 16.82697863640064 4.419530740097379 5.679957760222805 0 1 0
1534 77 2 17.11916168548289 4.682260189340577 3.902536876242442 0 1 0
1533 77 2 17.406063328718094 5.414166670205881 4.79159890584864 0 1 0
119 6 2 22.34988625029406 5.442189991519075 3.7117144833704123 0 1 -1
1000 50 2 24.18918397650518 4.565400347576343 7.193047889208676 0 1 1
997 50 2 24.904579113699786 3.8025556212805682 6.3283071853592165 0 1 1
1529 77 1 15.580001533027676 6.346533579708915 3.685549472980207 0 0 0
1532 77 1 16.54250296794853 4.94234013368408 4.459507161924736 0 1 0
1531 77 3 16.45747459321959 6.044709962264457 4.448828336342125 0 0 0
541 28 1 9.485079919628957 10.653480151139673 4.899315456351565 -1 -1 0
2334 117 2 4.543433536976309 13.346272468605225 5.144928705568211 1 0 -1
1742 88 1 5.364470087271778 12.669486558985934 4.8967087075436675 0 0 0
1743 88 3 5.617864941513832 12.157120243887997 5.691033092829106 0 0 0
1749 88 1 7.540873692832198 11.889352361249525 5.561390568711216 0 0 0
1750 88 3 8.002750941776105 11.749532886297409 4.73844166539714 0 0 0
1751 88 3 7.489916625308178 12.624276137637429 4.920157131616365 0 0 0
315 16 2 16.05552466870392 11.74185244333749 3.9238755445753766 0 0 -1
316 16 2 16.979275897453046 11.84862185134067 4.514905833108018 0 0 -1
318 16 2 16.61663452555492 12.514390979727008 4.840729082817933 0 0 -1
312 16 1 17.768428154897045 12.319505627138309 3.924505245315101 0 0 -1
317 16 2 17.17120280795817 12.111420012713014 5.623875235051905 0 0 -1
2335 117 2 4.910774231138055 14.155575159991356 5.271887602086809 2 0 0
1753 88 2 7.360134032504238 14.546443533148116 4.837102492240787 0 0 0
1752 88 1 7.053668744385251 13.523600291098504 4.906026816602369 0 0 0
310 16 3 16.701388346651093 13.904176856805707 4.809844031380193 0 0 -1
309 16 1 17.185439417949922 13.740410934054351 5.615046149632732 0 0 -1
311 16 3 17.397125216409865 13.28367343437548 4.294781465128866 0 0 -1
1209 61 1 24.045386353183726 13.68889635260966 4.2826591217150405 0 -1 0
1206 61 1 23.129918072730234 13.043521095924673 4.195132332122904 0 -1 0
2336 117 2 4.673028897000935 14.991652784892723 5.220484245917034 1 0 -1
2340 117 2 4.636372558312135 15.512656147358484 3.8991016799923064 1 0 -1
2337 117 2 4.067673414808331 14.117670046336729 5.104229824624791 2 0 0
1757 88 2 6.7066090778652345 15.243921672556693 4.397546291915117 0 0 0
1754 88 2 7.0100784809725365 15.239848910222749 5.403145705421435 0 0 0
1755 88 2 7.200929869943009 15.260991430694913 4.278322062063589 0 0 0
308 16 1 17.363465392205782 13.420347554572647 4.570865942870399 0 0 -1
305 16 1 17.851069886755322 15.062278544771095 4.77786914714469 0 0 -1
307 16 1 17.38903398323214 14.449570054843734 5.038017586893072 0 0 -1
1204 61 3 23.009200289912126 14.087250983034302 4.358169349373077 0 -1 -1
1210 61 3 24.89183819515964 14.058152098456771 4.7290415132144235 0 -1 -1
2338 117 2 4.45979039447525 14.97987211977908 5.1066688417038755 1 0 -1
1756 88 2 6.803390785291231 14.792989682752541 3.4280996095462424 0 0 0
304 16 3 16.87582335263663 15.479787025508035 4.8660283890777425 0 0 -1
302 16 1 17.492281762231446 17.053234168444185 4.736303337402049 0 0 -1
975 49 2 1.8647940753236967 22.154721305606106 4.568989387737475 0 0 0
974 49 2 1.3397336068909538 21.369702502057525 5.010687695332548 0 0 0
972 49 1 29.8521565002941 22.80944724193887 5.13071766964144 -1 0 0
973 49 2 0.9090912939295712 22.352989079172612 4.748413936448831 0 0 0
976 49 2 1.9011440736286398 21.378791966415527 3.8661011566008496 0 0 0
1975 99 2 12.707331950552458 21.56789834100374 3.341557246102989 0 -1 0
1974 99 2 13.338137295502056 21.281337364599683 3.7619263899520674 0 -1 0
1971 99 3 14.507979509986056 21.77358848253854 3.811729576923488 0 0 0
240 12 2 7.511271805648173 22.51933639932183 6.1397068054818345 -1 -1 0
2277 114 2 11.780352791675332 24.50940289534664 3.6890799941963257 0 0 0
2273 114 2 13.040081081349626 24.304903530902173 3.453803813042873 0 0 0
2267 114 1 15.543762371547166 24.609312051266453 4.001462631213407 0 0 0
1228 62 1 20.93377506055276 22.57463994198366 3.7513537326915705 -1 0 0
2279 114 2 10.67359768983587 25.45763624775364 4.517048787400861 0 0 0