ITEM: TIMESTEP
0
ITEM: NUMBER OF ATOMS
56
ITEM: BOX BOUNDS pp pp pp
0.0000000000000000e+00 1.0000000000000000e+01
0.0000000000000000e+00 1.0000000000000000e+01
0.0000000000000000e+00 1.0000000000000000e+01
ITEM: ATOMS id mol type x y z ix iy iz
45 7 2 1.5076 1.91647 0.102264 0 0 0
43 7 1 0.496138 2.09674 0.431702 0 0 0
44 7 1 1.29339 2.80422 0.409951 0 0 0
41 6 2 7.6384 7.84757 0.139619 0 0 0
46 7 2 0.98 2.29392 0.999132 0 0 0
47 7 2 1.16528 1.61468 1.44824 0 0 0
48 7 2 1.69201 2.47745 1.57943 0 0 0
35 5 2 4.2395 2.86709 1.84049 0 0 0
33 5 2 3.52921 4.13334 1.88026 0 0 0
32 5 2 3.33682 3.30461 2.12005 0 0 0
34 5 2 4.24103 3.59051 2.37941 0 0 0
27 4 2 2.36679 6.65466 2.44592 0 0 0
28 4 2 2.97834 6.29515 2.07592 0 0 0
25 4 2 4.04185 6.30617 2.36384 0 0 0
24 4 2 4.81095 6.2131 2.27627 0 0 0
4 1 2 2.67222 7.96685 2.25603 0 0 0
3 1 2 1.87231 8.657 2.63186 0 0 0
49 7 2 1.61165 2.03521 2.8001 0 0 0
30 5 1 2.99026 4.60548 3.27328 0 0 0
31 5 2 3.8902 4.0963 2.67824 0 0 0
23 4 1 5.71315 5.65632 2.68754 0 0 0
26 4 2 3.28018 6.86956 2.76775 0 0 0
2 1 1 2.44935 8.02782 3.00061 0 0 0
5 1 2 2.62311 8.30537 3.1841 0 0 0
17 3 2 4.53119 8.73991 3.25697 0 0 0
29 5 1 2.28387 4.73269 3.96138 0 0 0
22 4 1 5.98397 5.12708 3.42309 0 0 0
19 3 2 4.72415 7.73818 3.70359 0 0 0
21 3 2 6.03277 7.86388 3.48831 0 0 0
12 2 2 7.99545 7.88466 3.63699 0 0 0
1 1 1 1.56856 8.4591 3.42057 0 0 0
13 2 2 7.25742 8.47018 3.5165 0 0 0
18 3 2 5.20111 8.73893 3.83735 0 0 0
14 2 2 7.29599 9.51913 3.71789 0 0 0
9 2 1 6.67173 6.71985 4.24661 0 0 0
10 2 2 7.59198 7.06422 4.24506 0 0 0
7 1 2 3.01124 8.11542 4.5825 0 0 0
20 3 2 5.38559 8.0333 4.25032 0 0 0
6 1 2 2.3915 8.69228 4.04869 0 0 0
16 3 1 4.64689 9.20339 4.11572 0 0 0
15 3 1 3.93963 9.76239 4.24037 0 0 0
8 2 1 7.53948 6.97976 4.86852 0 0 0
11 2 2 8.02604 7.63901 4.77183 0 0 0
52 8 2 7.7051 0.970708 6.9939 0 0 0
51 8 1 8.2134 1.81467 7.23643 0 0 0
53 8 2 7.53539 1.33449 7.94342 0 0 0
50 8 1 9.27634 1.4964 7.39495 0 0 0
36 6 1 7.81442 6.56299 7.84327 0 0 0
56 8 2 7.30593 0.431328 8.47654 0 0 0
55 8 2 8.33527 0.674856 8.5664 0 0 0
54 8 2 8.31453 1.85312 8.34638 0 0 0
37 6 1 8.61973 6.63887 8.507 0 0 0
38 6 2 7.80709 6.58577 8.98632 0 0 0
39 6 2 6.92648 6.85158 9.06379 0 0 0
42 6 2 8.02002 7.04069 9.9925 0 0 0
40 6 2 6.54858 7.60385 9.81682 0 0 0
