ITEM: TIMESTEP
0
ITEM: NUMBER OF ATOMS
87
ITEM: BOX BOUNDS pp pp pp
0.0000000000000000e+00 1.0000000000000000e+01
0.0000000000000000e+00 1.0000000000000000e+01
0.0000000000000000e+00 1.0000000000000000e+01
ITEM: ATOMS id mol type x y z ix iy iz
1794 1762 5 6.11262 7.26737 0.368457 0 0 0
28 6 2 6.72431 6.73214 0.0281553 0 0 0
27 6 2 6.48212 7.381 0.0114016 0 0 0
30 6 3 6.37213 7.6378 0.277297 0 0 0
1123 1091 5 3.70872 6.47335 3.311 0 0 0
1609 1577 5 3.21779 7.279 3.13682 0 0 0
296 264 5 3.79341 7.36138 2.88905 0 0 0
864 832 5 3.91757 7.7867 3.235 0 0 0
3120 3088 5 3.7423 6.35578 3.4326 0 0 0
2519 2487 5 3.61375 7.00816 3.37221 0 0 0
2470 2438 5 4.25635 6.79453 3.47565 0 0 0
3205 3173 5 4.52329 6.94047 3.92486 0 0 0
2440 2408 5 3.91051 7.8386 3.35604 0 0 0
640 608 5 3.64001 7.411 3.80137 0 0 0
1773 1741 5 4.45239 6.95008 4.58487 0 0 0
36 8 1 6.24435 6.11995 7.28368 0 0 0
37 8 2 6.03847 6.25493 7.15496 0 0 0
21 5 1 6.16571 7.00298 7.23189 0 0 0
24 5 3 6.3515 7.12339 7.05316 0 0 0
23 5 2 6.37105 7.08555 7.19492 0 0 0
25 5 3 6.85178 7.50007 7.27449 0 0 0
22 5 2 6.97886 7.53837 6.9768 0 0 0
3020 2988 5 6.78025 6.0225 7.88061 0 0 0
6 2 1 5.86065 7.13141 7.9516 0 0 0
959 927 5 6.87939 6.75205 7.91282 0 0 0
38 8 2 7.27906 6.77465 7.90024 0 0 0
40 8 3 6.99115 6.81517 7.91616 0 0 0
1889 1857 5 6.47685 7.98552 7.7807 0 0 0
1286 1254 5 6.94147 7.47714 7.4942 0 0 0
1628 1596 5 7.19826 7.77764 7.82413 0 0 0
35 7 3 6.58773 8.33955 7.50996 0 0 0
2645 2613 5 6.77122 8.22689 7.81712 0 0 0
3254 3222 5 5.52002 5.8336 8.26815 0 0 0
1538 1506 5 6.01523 5.43385 8.57443 0 0 0
2972 2940 5 6.78183 5.55755 8.24115 0 0 0
685 653 5 5.75743 6.43216 8.10323 0 0 0
2931 2899 5 6.12324 6.01958 8.3697 0 0 0
7 2 2 5.97737 7.10856 8.03555 0 0 0
355 323 5 6.38245 6.96562 8.51522 0 0 0
8 2 2 6.34607 6.89079 8.46367 0 0 0
10 2 3 6.31383 6.91026 8.62907 0 0 0
3128 3096 5 7.34994 7.30028 8.32704 0 0 0
347 315 5 7.67657 7.26619 8.01931 0 0 0
625 593 5 8.05228 6.90754 8.46738 0 0 0
9 2 3 5.85439 7.47693 8.31794 0 0 0
2576 2544 5 6.60067 7.96424 8.45912 0 0 0
2066 2034 5 6.53467 7.67123 8.36503 0 0 0
2581 2549 5 6.16949 8.12233 8.2487 0 0 0
32 7 2 7.31201 8.58219 8.04 0 0 0
33 7 2 7.268 8.51458 8.20852 0 0 0
31 7 1 7.4035 8.4038 8.50381 0 0 0
34 7 3 7.56454 8.76248 8.29807 0 0 0
3 1 2 5.49439 5.95198 9.14623 0 0 0
1102 1070 5 5.46677 5.69352 9.18158 0 0 0
5 1 3 5.7037 5.67506 9.09921 0 0 0
16 4 1 6.66007 5.47615 8.983 0 0 0
17 4 2 6.49492 5.95089 9.33206 0 0 0
19 4 3 6.65825 5.5863 8.99842 0 0 0
1 1 1 5.28362 6.63984 8.85074 0 0 0
4 1 3 5.32558 6.28363 8.67385 0 0 0
314 282 5 5.63196 6.13206 9.06528 0 0 0
2 1 2 5.48312 6.38926 8.88968 0 0 0
20 4 3 6.3696 6.33559 9.15984 0 0 0
2296 2264 5 6.41926 6.30034 9.05324 0 0 0
18 4 2 6.47707 6.19371 8.88776 0 0 0
2938 2906 5 6.72884 6.28631 8.68078 0 0 0
1475 1443 5 5.94508 7.15979 9.15081 0 0 0
14 3 3 6.35596 7.22743 9.18128 0 0 0
3116 3084 5 6.22708 7.26006 8.72228 0 0 0
276 244 5 7.09686 6.93276 8.68625 0 0 0
206 174 5 7.08113 6.6797 9.24268 0 0 0
324 292 5 7.89078 7.30002 8.75318 0 0 0
1512 1480 5 7.57454 6.7161 9.21437 0 0 0
15 3 3 5.62746 7.40783 8.84059 0 0 0
13 3 2 5.62692 7.57187 9.32148 0 0 0
2822 2790 5 6.11946 7.92755 9.04413 0 0 0
2795 2763 5 7.20743 7.51196 8.81527 0 0 0
1853 1821 5 7.5874 7.68286 8.83267 0 0 0
2780 2748 5 6.65653 8.14491 9.31381 0 0 0
2336 2304 5 7.29041 6.46613 9.42968 0 0 0
11 3 2 5.67283 7.19913 9.71069 0 0 0
12 3 2 5.81136 7.04012 9.44669 0 0 0
2405 2373 5 6.76575 6.69939 9.68125 0 0 0
2832 2800 5 6.26478 7.57467 9.93153 0 0 0
29 6 3 6.61758 7.43298 9.7203 0 0 0
26 6 1 6.84443 7.48872 9.52781 0 0 0
1867 1835 5 6.0524 8.14889 9.41597 0 0 0
