ITEM: TIMESTEP
0
ITEM: NUMBER OF ATOMS
87
ITEM: BOX BOUNDS pp pp pp
0.0000000000000000e+00 1.0000000000000000e+01
0.0000000000000000e+00 1.0000000000000000e+01
0.0000000000000000e+00 1.0000000000000000e+01
ITEM: ATOMS id mol type x y z ix iy iz
3254 3222 5 2.03686 6.63517 3.62345 0 0 0
2795 2763 5 2.3068 7.01402 3.96527 0 0 0
17 4 2 1.45178 8.00266 3.77186 0 0 0
7 2 2 2.65573 6.3447 4.30262 0 0 0
355 323 5 2.82823 6.59544 4.40429 0 0 0
1867 1835 5 1.93819 6.90725 4.20073 0 0 0
3205 3173 5 2.73428 7.07672 4.6213 0 0 0
324 292 5 3.34779 7.16824 4.12523 0 0 0
296 264 5 1.12687 7.36199 4.27445 0 0 0
2972 2940 5 1.06241 7.69842 4.66563 0 0 0
2470 2438 5 2.11905 7.53045 4.06839 0 0 0
1853 1821 5 2.75889 7.69514 4.01949 0 0 0
2822 2790 5 2.84119 7.55682 4.09857 0 0 0
18 4 2 1.49186 8.55503 4.24608 0 0 0
16 4 1 1.72635 8.07483 4.05311 0 0 0
19 4 3 1.48068 8.15124 4.1435 0 0 0
29 6 3 2.23365 8.29168 4.63747 0 0 0
2405 2373 5 2.62197 8.36591 4.49489 0 0 0
30 6 3 2.58121 8.46955 4.04878 0 0 0
28 6 2 2.68255 8.49676 4.02161 0 0 0
2832 2800 5 2.78416 8.44086 4.24039 0 0 0
20 4 3 1.57935 8.82984 4.41551 0 0 0
2938 2906 5 1.72525 8.74502 4.31038 0 0 0
13 3 2 1.5822 6.64512 5.17077 0 0 0
8 2 2 2.47197 6.45732 5.21664 0 0 0
6 2 1 2.64519 6.53336 5.06252 0 0 0
9 2 3 2.64293 6.5904 5.23678 0 0 0
10 2 3 2.96342 6.19167 4.69484 0 0 0
11 3 2 0.767993 7.1091 5.2361 0 0 0
14 3 3 0.895786 6.93051 5.16023 0 0 0
12 3 2 0.771287 7.26502 5.16248 0 0 0
15 3 3 1.7892 6.93869 5.29205 0 0 0
1538 1506 5 1.7432 6.77596 4.73786 0 0 0
3116 3084 5 1.55103 6.94215 5.30579 0 0 0
2931 2899 5 2.38882 7.29623 4.76422 0 0 0
1794 1762 5 3.15368 7.3017 5.19574 0 0 0
3020 2988 5 1.56025 7.58236 4.79997 0 0 0
347 315 5 2.96403 7.68585 4.94227 0 0 0
2296 2264 5 1.56081 8.59815 4.72205 0 0 0
27 6 2 2.31928 8.07917 4.89539 0 0 0
26 6 1 2.33602 8.23429 5.15718 0 0 0
864 832 5 3.11853 8.05743 5.07786 0 0 0
640 608 5 1.32429 8.70595 5.30481 0 0 0
36 8 1 2.91408 9.04049 4.9309 0 0 0
38 8 2 2.87663 8.9962 4.8475 0 0 0
1475 1443 5 1.59555 7.0179 5.45325 0 0 0
625 593 5 3.2737 7.10186 5.68456 0 0 0
3120 3088 5 1.26308 7.85452 5.37781 0 0 0
2336 2304 5 2.37754 7.54046 5.93136 0 0 0
276 244 5 2.15675 7.60273 5.44057 0 0 0
2440 2408 5 2.93214 7.44748 5.53577 0 0 0
1609 1577 5 2.71375 7.90467 5.89768 0 0 0
2581 2549 5 1.63597 8.18914 5.47353 0 0 0
4 1 3 2.03663 8.84302 5.69706 0 0 0
1 1 1 2.06897 8.79782 5.59463 0 0 0
40 8 3 3.02434 8.72086 5.48525 0 0 0
37 8 2 3.06974 8.79787 5.45361 0 0 0
1512 1480 5 1.62546 6.65802 6.0096 0 0 0
1628 1596 5 2.6225 7.01811 6.02951 0 0 0
1123 1091 5 2.34198 6.97811 6.08641 0 0 0
2780 2748 5 1.05272 7.4185 6.19496 0 0 0
32 7 2 1.12674 7.90896 6.36652 0 0 0
2519 2487 5 1.72407 7.33718 6.27554 0 0 0
25 5 3 2.12102 7.52459 6.57905 0 0 0
1773 1741 5 2.03057 7.93065 6.18502 0 0 0
21 5 1 3.08752 7.57237 6.64575 0 0 0
2645 2613 5 1.15578 8.63702 6.11081 0 0 0
35 7 3 1.22543 8.31518 6.25355 0 0 0
3128 3096 5 2.43267 8.38761 6.24601 0 0 0
5 1 3 1.66512 8.80046 6.14119 0 0 0
1102 1070 5 2.06702 9.02775 6.53416 0 0 0
685 653 5 2.6793 8.74515 6.61461 0 0 0
3 1 2 2.34313 9.57271 6.28782 0 0 0
22 5 2 1.72057 7.31902 6.83692 0 0 0
1286 1254 5 1.95681 7.4461 6.81597 0 0 0
1889 1857 5 1.89311 7.96418 7.00147 0 0 0
24 5 3 2.99071 7.63955 6.74259 0 0 0
23 5 2 2.73674 7.65606 6.92567 0 0 0
34 7 3 1.13993 8.10821 6.81985 0 0 0
31 7 1 1.21579 8.45736 6.95236 0 0 0
33 7 2 1.41979 8.00417 6.85039 0 0 0
959 927 5 2.11823 8.40336 6.69393 0 0 0
2066 2034 5 2.44597 8.11651 7.26039 0 0 0
2576 2544 5 2.48932 8.55249 7.31142 0 0 0
206 174 5 2.66968 9.29145 6.99937 0 0 0
2 1 2 1.95169 9.66134 6.86783 0 0 0
314 282 5 1.96642 9.59491 6.79064 0 0 0
