ITEM: TIMESTEP
0
ITEM: NUMBER OF ATOMS
87
ITEM: BOX BOUNDS pp pp pp
0.0000000000000000e+00 1.0000000000000000e+01
0.0000000000000000e+00 1.0000000000000000e+01
0.0000000000000000e+00 1.0000000000000000e+01
ITEM: ATOMS id mol type x y z ix iy iz
1773 1741 5 9.12178 3.8096 0.30125 0 0 0
2336 2304 5 8.95739 3.44084 0.367576 0 0 0
7 2 2 7.50547 4.10986 0.0156869 0 0 0
6 2 1 7.52466 4.21022 0.26492 0 0 0
9 2 3 7.82597 4.05814 0.301792 0 0 0
40 8 3 8.58157 4.54119 0.292369 0 0 0
37 8 2 8.51486 4.07951 0.00964672 0 0 0
21 5 1 9.06969 4.59295 0.630665 0 0 0
8 2 2 7.76478 4.91123 0.315483 0 0 0
3116 3084 5 7.57016 5.14904 0.540441 0 0 0
355 323 5 7.74599 5.15057 0.142641 0 0 0
10 2 3 7.78467 4.98492 0.406958 0 0 0
23 5 2 9.21583 5.26374 0.254706 0 0 0
1286 1254 5 8.6046 5.38536 0.525375 0 0 0
2780 2748 5 8.12705 5.63304 0.324084 0 0 0
25 5 3 9.16951 5.39363 0.54887 0 0 0
1 1 1 8.55361 6.22839 0.570372 0 0 0
4 1 3 8.66582 6.25028 0.644265 0 0 0
2822 2790 5 7.84131 3.54928 0.917365 0 0 0
2066 2034 5 8.31204 3.74856 1.16248 0 0 0
16 4 1 9.13008 3.51656 1.28826 0 0 0
19 4 3 9.02199 3.61451 1.17997 0 0 0
17 4 2 9.26699 3.51173 1.04356 0 0 0
2296 2264 5 9.88835 3.96051 1.26952 0 0 0
20 4 3 9.57217 3.92621 1.24286 0 0 0
2938 2906 5 9.73972 3.97398 1.29866 0 0 0
324 292 5 8.36537 4.08216 1.06872 0 0 0
959 927 5 8.10383 4.41596 0.850742 0 0 0
24 5 3 9.03343 4.53759 0.819387 0 0 0
18 4 2 9.71581 4.10895 1.18305 0 0 0
11 3 2 6.53412 4.99067 1.02202 0 0 0
12 3 2 6.56341 5.25458 0.886437 0 0 0
14 3 3 6.51539 5.29377 0.819758 0 0 0
276 244 5 7.77314 4.67219 0.893684 0 0 0
1628 1596 5 7.97478 4.81507 1.24254 0 0 0
640 608 5 8.40618 5.05987 1.05714 0 0 0
22 5 2 8.43692 5.32984 0.733365 0 0 0
1538 1506 5 8.86866 5.04114 1.24943 0 0 0
35 7 3 9.95049 5.02075 1.28405 0 0 0
1889 1857 5 9.5325 5.02661 1.17044 0 0 0
13 3 2 6.89945 5.46752 0.88816 0 0 0
15 3 3 7.02578 5.33366 0.743528 0 0 0
1475 1443 5 7.168 5.68417 0.682035 0 0 0
1512 1480 5 7.56623 5.75093 1.19437 0 0 0
1609 1577 5 7.48769 5.84582 0.8595 0 0 0
1867 1835 5 9.11515 5.71086 1.01769 0 0 0
3128 3096 5 7.62017 6.01267 0.894043 0 0 0
1102 1070 5 8.06777 6.49066 1.12805 0 0 0
2 1 2 8.6837 6.32971 0.975156 0 0 0
314 282 5 8.2201 6.68262 1.15798 0 0 0
5 1 3 8.05808 6.77938 0.683295 0 0 0
3 1 2 8.05413 6.70517 0.919099 0 0 0
1853 1821 5 8.18463 3.17985 1.66915 0 0 0
3205 3173 5 8.46833 3.22701 1.95592 0 0 0
2440 2408 5 8.17354 3.84379 1.84838 0 0 0
2795 2763 5 8.3672 4.52371 1.7912 0 0 0
2470 2438 5 9.22679 4.5974 1.43784 0 0 0
2972 2940 5 7.49627 5.05964 1.42481 0 0 0
3120 3088 5 8.25653 5.30201 1.76475 0 0 0
2931 2899 5 8.82483 4.83152 1.63766 0 0 0
33 7 2 9.87126 5.26842 1.35882 0 0 0
2645 2613 5 9.89388 5.2334 1.35263 0 0 0
32 7 2 9.82521 4.66877 1.98648 0 0 0
34 7 3 9.93781 4.96146 1.89614 0 0 0
685 653 5 7.75382 5.50347 1.8726 0 0 0
864 832 5 7.37925 5.666 1.72246 0 0 0
2519 2487 5 8.38997 5.98738 1.78272 0 0 0
2581 2549 5 9.12988 5.72584 1.33549 0 0 0
347 315 5 8.00522 6.11156 1.80883 0 0 0
206 174 5 8.78142 6.12951 1.61292 0 0 0
296 264 5 9.22982 3.61107 2.0034 0 0 0
28 6 2 8.66323 4.59362 2.36343 0 0 0
2405 2373 5 9.05424 4.01403 2.22477 0 0 0
2832 2800 5 9.08888 4.17952 2.20554 0 0 0
30 6 3 8.88846 4.21716 2.24628 0 0 0
27 6 2 8.0635 4.69517 2.56908 0 0 0
29 6 3 8.39581 5.04348 2.37738 0 0 0
26 6 1 8.19289 4.92752 2.38532 0 0 0
1794 1762 5 9.10868 5.07902 2.44689 0 0 0
31 7 1 9.83514 4.74571 2.05757 0 0 0
3020 2988 5 8.97236 5.45067 2.12929 0 0 0
2576 2544 5 8.71891 5.86058 2.17959 0 0 0
625 593 5 8.33498 6.645 2.06653 0 0 0
1123 1091 5 7.17131 5.57375 7.98045 0 0 0
3254 3222 5 9.07199 3.83072 9.77612 0 0 0
36 8 1 8.43282 4.55178 9.84987 0 0 0
38 8 2 8.77627 4.82065 9.84108 0 0 0
