ITEM: TIMESTEP
0
ITEM: NUMBER OF ATOMS
87
ITEM: BOX BOUNDS pp pp pp
0.0000000000000000e+00 1.0000000000000000e+01
0.0000000000000000e+00 1.0000000000000000e+01
0.0000000000000000e+00 1.0000000000000000e+01
ITEM: ATOMS id mol type x y z ix iy iz
21 5 1 3.69309 6.72947 3.92501 0 0 0
34 7 3 4.03324 7.67802 3.97817 0 0 0
9 2 3 2.14868 5.28832 4.43258 0 0 0
4 1 3 1.28096 6.03506 4.49367 0 0 0
26 6 1 1.80154 6.51397 4.44139 0 0 0
1 1 1 1.40453 6.08622 4.45711 0 0 0
2440 2408 5 2.58709 6.29313 4.61574 0 0 0
1794 1762 5 2.61686 6.51753 4.41469 0 0 0
40 8 3 3.6433 6.01854 4.61414 0 0 0
30 6 3 0.9774 7.09437 4.4099 0 0 0
28 6 2 0.949094 6.98309 4.645 0 0 0
2832 2800 5 0.901187 6.97465 4.57563 0 0 0
27 6 2 1.27545 7.04644 4.36972 0 0 0
29 6 3 1.59104 6.68212 4.4708 0 0 0
1286 1254 5 3.15123 7.29332 4.24052 0 0 0
22 5 2 3.32903 6.94195 4.15141 0 0 0
24 5 3 3.37447 6.83595 4.08251 0 0 0
23 5 2 3.66178 6.83784 4.053 0 0 0
25 5 3 3.02294 7.44544 4.25816 0 0 0
33 7 2 3.84909 7.98352 4.20683 0 0 0
2645 2613 5 3.33446 7.99392 4.53252 0 0 0
1889 1857 5 3.45568 7.67511 4.27917 0 0 0
31 7 1 4.18019 7.98408 4.22902 0 0 0
32 7 2 4.07116 7.77953 4.24414 0 0 0
10 2 3 1.63338 5.28245 4.84864 0 0 0
7 2 2 1.65813 5.27194 4.84282 0 0 0
355 323 5 1.57949 5.52727 4.98168 0 0 0
8 2 2 2.39852 5.51906 5.00078 0 0 0
6 2 1 2.4214 5.61976 4.6843 0 0 0
3020 2988 5 3.0959 5.99251 4.91352 0 0 0
37 8 2 3.79544 5.63462 4.70853 0 0 0
36 8 1 4.04791 5.5436 4.9433 0 0 0
314 282 5 0.857966 6.13999 5.08652 0 0 0
1102 1070 5 1.17748 6.43924 4.99067 0 0 0
2 1 2 0.89512 6.02108 5.31321 0 0 0
3 1 2 1.18653 6.01585 5.07932 0 0 0
1538 1506 5 2.17379 6.25814 5.21918 0 0 0
1609 1577 5 3.09239 6.58697 5.14051 0 0 0
959 927 5 3.82095 6.50137 4.70982 0 0 0
38 8 2 3.80967 6.17821 4.72735 0 0 0
2405 2373 5 0.534729 6.94021 4.67988 0 0 0
2822 2790 5 1.3733 7.18247 5.30794 0 0 0
864 832 5 1.61587 7.32019 5.21183 0 0 0
2780 2748 5 2.27653 7.00583 5.10903 0 0 0
206 174 5 2.44432 7.1119 4.79814 0 0 0
2576 2544 5 3.21127 6.87694 5.03547 0 0 0
1773 1741 5 3.6362 7.31146 5.06861 0 0 0
3120 3088 5 4.05307 7.05552 4.74243 0 0 0
3254 3222 5 2.56409 7.56465 5.12874 0 0 0
2336 2304 5 3.13877 7.37244 5.00497 0 0 0
685 653 5 3.84479 7.83273 5.29238 0 0 0
35 7 3 3.38502 8.16603 4.82782 0 0 0
18 4 2 2.1333 5.17874 5.55694 0 0 0
17 4 2 2.46959 4.90788 5.90601 0 0 0
5 1 3 1.12047 5.90623 5.5361 0 0 0
2938 2906 5 1.9564 5.4475 5.80514 0 0 0
2296 2264 5 1.97264 5.39225 5.75093 0 0 0
3205 3173 5 3.26349 5.52566 5.47167 0 0 0
3116 3084 5 2.8295 5.67297 5.41221 0 0 0
1628 1596 5 3.66599 5.58203 5.76002 0 0 0
625 593 5 1.64109 6.33166 5.8751 0 0 0
2931 2899 5 2.37731 6.48955 5.46888 0 0 0
640 608 5 2.91609 6.39494 5.78699 0 0 0
276 244 5 3.5437 6.5816 5.58418 0 0 0
2470 2438 5 3.48295 6.05202 5.73324 0 0 0
1853 1821 5 2.19452 6.92324 5.81296 0 0 0
324 292 5 3.13369 6.83531 5.85272 0 0 0
1867 1835 5 3.68267 7.11537 5.4268 0 0 0
2519 2487 5 1.90424 7.65251 5.90158 0 0 0
1123 1091 5 2.68524 7.81935 5.53223 0 0 0
2066 2034 5 3.22048 7.92529 5.64085 0 0 0
2581 2549 5 3.49346 7.48829 5.80742 0 0 0
20 4 3 1.97247 5.11064 6.02371 0 0 0
19 4 3 3.02815 5.20763 6.05177 0 0 0
16 4 1 2.82228 5.37325 6.18809 0 0 0
15 3 3 3.22964 5.98124 6.43243 0 0 0
2795 2763 5 1.5128 7.28985 6.01509 0 0 0
1512 1480 5 2.46517 7.02826 6.25093 0 0 0
2972 2940 5 2.81226 6.73739 6.26704 0 0 0
3128 3096 5 3.30555 6.97542 6.19589 0 0 0
347 315 5 2.2144 7.43751 6.01395 0 0 0
296 264 5 3.23884 7.52385 6.26796 0 0 0
12 3 2 3.55421 5.70836 6.69672 0 0 0
14 3 3 2.94552 6.25719 6.688 0 0 0
11 3 2 2.93078 6.25085 7.09375 0 0 0
13 3 2 3.52467 6.0228 6.88849 0 0 0
1475 1443 5 3.61117 6.07107 6.67041 0 0 0
