ITEM: TIMESTEP
0
ITEM: NUMBER OF ATOMS
87
ITEM: BOX BOUNDS pp pp pp
0.0000000000000000e+00 1.0000000000000000e+01
0.0000000000000000e+00 1.0000000000000000e+01
0.0000000000000000e+00 1.0000000000000000e+01
ITEM: ATOMS id mol type x y z ix iy iz
9 2 3 6.35111 1.10171 0.62243 0 0 0
6 2 1 6.53755 1.3184 0.394639 0 0 0
7 2 2 6.5679 1.22137 0.442889 0 0 0
28 6 2 7.37879 0.854368 0.00240611 0 0 0
30 6 3 7.51488 0.922651 0.145448 0 0 0
8 2 2 6.13827 1.3686 0.41125 0 0 0
10 2 3 6.0826 1.51048 0.507328 0 0 0
296 264 5 9.43519 2.30731 0.0297722 0 0 0
1773 1741 5 3.17995 2.70727 0.463676 0 0 0
1867 1835 5 2.00402 5.16637 0.419686 0 0 0
1628 1596 5 1.82516 7.13454 0.380375 0 0 0
1286 1254 5 5.21012 0.0376443 0.858016 0 0 0
4 1 3 2.51695 0.723802 1.21781 0 0 0
2519 2487 5 2.34204 8.45865 0.941143 0 0 0
3 1 2 2.36601 0.662095 1.93922 0 0 0
2 1 2 2.71424 0.991403 1.69471 0 0 0
1 1 1 2.69113 0.752644 1.55223 0 0 0
2581 2549 5 7.90727 7.30163 1.47165 0 0 0
3120 3088 5 9.72904 7.19859 1.82126 0 0 0
1102 1070 5 1.05093 7.75007 1.82435 0 0 0
5 1 3 2.43697 0.773124 2.28907 0 0 0
20 4 3 5.31618 3.45842 2.32661 0 0 0
17 4 2 5.18367 3.58737 2.25053 0 0 0
18 4 2 5.57654 3.64305 2.4296 0 0 0
19 4 3 5.48868 3.75848 2.09584 0 0 0
16 4 1 5.43433 3.83186 2.1968 0 0 0
206 174 5 6.12149 5.52642 2.38291 0 0 0
3116 3084 5 1.67344 1.25242 2.86772 0 0 0
1853 1821 5 4.5889 1.00845 3.13033 0 0 0
1538 1506 5 6.57089 4.98057 3.09585 0 0 0
34 7 3 2.56283 1.01244 3.49772 0 0 0
31 7 1 2.64068 0.897569 3.5079 0 0 0
33 7 2 2.88274 0.840234 3.45353 0 0 0
32 7 2 2.882 0.887428 3.82185 0 0 0
1609 1577 5 7.10475 5.62079 3.86192 0 0 0
314 282 5 1.89243 6.03486 3.69156 0 0 0
3205 3173 5 6.64267 6.66696 3.33786 0 0 0
640 608 5 6.26808 7.65956 3.67652 0 0 0
35 7 3 2.06549 1.44738 4.11859 0 0 0
685 653 5 5.76101 3.26372 4.57348 0 0 0
2832 2800 5 0.641376 8.19612 4.08905 0 0 0
3254 3222 5 3.19473 0.363014 5.2702 0 0 0
2470 2438 5 5.78369 0.848997 5.04131 0 0 0
21 5 1 4.35222 0.890891 5.72705 0 0 0
23 5 2 4.07993 1.04456 5.93579 0 0 0
24 5 3 4.72611 1.0369 5.99361 0 0 0
1123 1091 5 1.69667 3.28579 5.82773 0 0 0
25 5 3 4.90944 1.09666 6.11841 0 0 0
22 5 2 4.92651 0.86478 6.27281 0 0 0
11 3 2 4.12058 3.85409 6.15354 0 0 0
14 3 3 4.1299 3.69305 6.46354 0 0 0
13 3 2 4.18435 3.70737 6.25103 0 0 0
15 3 3 4.6502 3.83678 6.17431 0 0 0
12 3 2 5.02755 4.32105 6.15111 0 0 0
3020 2988 5 9.58794 4.94803 6.31561 0 0 0
2296 2264 5 6.86165 5.67387 6.25681 0 0 0
2780 2748 5 2.4681 6.47465 6.18293 0 0 0
2822 2790 5 1.07853 8.85032 6.61154 0 0 0
276 244 5 3.87626 8.85962 6.58069 0 0 0
37 8 2 4.84905 9.83544 6.38428 0 0 0
36 8 1 4.78281 9.99441 6.43032 0 0 0
38 8 2 5.21789 9.95728 6.60136 0 0 0
40 8 3 5.25374 9.67433 6.07741 0 0 0
2938 2906 5 0.521169 0.125801 7.13545 0 0 0
3128 3096 5 3.50001 2.26604 7.03617 0 0 0
864 832 5 1.58613 2.88321 6.80451 0 0 0
625 593 5 8.60483 4.67226 6.68426 0 0 0
2795 2763 5 2.15728 6.19661 6.72549 0 0 0
355 323 5 1.54691 1.645 7.46843 0 0 0
324 292 5 3.14378 3.75992 7.4506 0 0 0
2066 2034 5 8.17189 5.75008 7.71586 0 0 0
1475 1443 5 7.16106 7.77331 7.51535 0 0 0
347 315 5 2.72858 8.73765 7.40336 0 0 0
2336 2304 5 3.44987 9.30413 7.64232 0 0 0
2405 2373 5 4.03346 3.65221 8.09045 0 0 0
1794 1762 5 1.49468 4.49649 8.12792 0 0 0
2645 2613 5 7.68841 7.76891 8.01777 0 0 0
2931 2899 5 5.89717 2.61333 8.91381 0 0 0
1889 1857 5 5.12982 3.64414 8.66697 0 0 0
959 927 5 9.95621 8.44033 9.01594 0 0 0
2972 2940 5 0.660989 9.26422 8.67525 0 0 0
27 6 2 7.23218 0.634005 9.49457 0 0 0
29 6 3 7.22009 0.866999 9.78713 0 0 0
26 6 1 7.1743 0.910897 9.78216 0 0 0
2440 2408 5 2.60938 2.82116 9.5235 0 0 0
1512 1480 5 4.79388 4.95227 9.775 0 0 0
2576 2544 5 7.97071 5.2592 9.50092 0 0 0
