ITEM: TIMESTEP
0
ITEM: NUMBER OF ATOMS
87
ITEM: BOX BOUNDS pp pp pp
0.0000000000000000e+00 1.0000000000000000e+01
0.0000000000000000e+00 1.0000000000000000e+01
0.0000000000000000e+00 1.0000000000000000e+01
ITEM: ATOMS id mol type x y z ix iy iz
3205 3173 5 7.7749 5.96717 1.2377 0 0 0
1609 1577 5 8.29429 6.24207 1.29465 0 0 0
2440 2408 5 8.41811 7.25657 1.04039 0 0 0
864 832 5 8.53698 6.9176 0.934803 0 0 0
2470 2438 5 7.03323 5.7392 1.3495 0 0 0
1773 1741 5 7.66157 5.88831 1.75379 0 0 0
1123 1091 5 8.40567 6.03368 1.90777 0 0 0
3120 3088 5 8.48321 6.47383 1.40047 0 0 0
2519 2487 5 8.11986 6.1806 1.7486 0 0 0
640 608 5 8.8849 6.66464 1.45279 0 0 0
296 264 5 8.83663 6.3753 1.79875 0 0 0
2066 2034 5 8.574 1.18522 3.95105 0 0 0
3020 2988 5 8.04315 0.682439 3.84113 0 0 0
1538 1506 5 8.51845 0.953688 3.4222 0 0 0
2576 2544 5 8.31665 0.60937 4.30045 0 0 0
625 593 5 8.09612 1.3246 4.59335 0 0 0
2822 2790 5 8.57461 1.37444 4.66649 0 0 0
2938 2906 5 7.77056 0.762093 4.79587 0 0 0
1628 1596 5 7.75068 0.877863 4.94126 0 0 0
2296 2264 5 8.49005 1.08016 5.22885 0 0 0
1867 1835 5 6.15285 5.24474 4.80128 0 0 0
1512 1480 5 6.00945 5.06656 4.67862 0 0 0
18 4 2 7.85272 0.507504 5.9099 0 0 0
20 4 3 7.98568 0.426644 5.64955 0 0 0
17 4 2 8.04682 0.316247 5.4559 0 0 0
16 4 1 7.76389 0.761637 5.98957 0 0 0
19 4 3 7.89206 0.782445 5.92047 0 0 0
2931 2899 5 5.49106 5.09387 5.39692 0 0 0
9 2 3 5.03752 3.32431 6.89541 0 0 0
8 2 2 5.3524 3.10039 6.93422 0 0 0
6 2 1 5.39057 3.12849 6.85857 0 0 0
7 2 2 4.87363 3.62326 7.16559 0 0 0
1853 1821 5 5.67515 3.52302 7.299 0 0 0
3 1 2 4.88869 1.32767 7.55552 0 0 0
5 1 3 5.06758 1.32654 7.88771 0 0 0
2645 2613 5 5.90626 1.52761 7.88495 0 0 0
2832 2800 5 4.56281 2.39534 7.98076 0 0 0
1102 1070 5 4.91465 2.15028 7.70394 0 0 0
1889 1857 5 5.34281 2.32099 7.83044 0 0 0
35 7 3 5.78333 2.4272 7.57454 0 0 0
34 7 3 6.47351 2.18492 7.97519 0 0 0
33 7 2 6.13966 2.34283 7.73174 0 0 0
32 7 2 6.48535 2.13242 7.59445 0 0 0
31 7 1 6.45182 2.3715 7.67685 0 0 0
685 653 5 4.2405 3.31429 7.98927 0 0 0
2972 2940 5 5.08618 2.93922 7.66437 0 0 0
25 5 3 5.96519 3.08831 7.72893 0 0 0
22 5 2 6.22926 3.30099 7.68073 0 0 0
24 5 3 6.33151 3.23072 7.5106 0 0 0
21 5 1 6.74244 3.32454 7.88462 0 0 0
10 2 3 4.81947 3.60413 7.36169 0 0 0
355 323 5 5.37068 3.97281 7.56065 0 0 0
29 6 3 4.17733 1.83738 8.42335 0 0 0
26 6 1 4.30577 1.78225 8.54534 0 0 0
4 1 3 5.1961 1.35495 8.51444 0 0 0
2 1 2 5.15973 1.4244 8.19767 0 0 0
1 1 1 4.96182 1.44523 8.63064 0 0 0
38 8 2 5.85682 1.93263 8.5825 0 0 0
314 282 5 5.18368 2.25879 8.62773 0 0 0
1794 1762 5 5.32153 2.07789 8.12948 0 0 0
36 8 1 6.1769 2.10745 8.61977 0 0 0
3128 3096 5 4.5411 3.32812 8.16618 0 0 0
347 315 5 4.9277 2.79463 8.39797 0 0 0
2780 2748 5 5.67118 2.8255 8.19794 0 0 0
276 244 5 5.47748 3.14384 8.66073 0 0 0
1475 1443 5 3.92715 3.76122 8.52484 0 0 0
3116 3084 5 5.19224 3.63851 8.09605 0 0 0
1286 1254 5 5.7131 3.59215 8.14508 0 0 0
2581 2549 5 6.44586 3.77254 8.57411 0 0 0
23 5 2 6.65208 3.36979 8.01093 0 0 0
15 3 3 5.52053 4.12676 8.65852 0 0 0
206 174 5 6.14166 4.36428 8.44718 0 0 0
28 6 2 4.28287 1.89979 8.67452 0 0 0
27 6 2 4.09288 1.85856 8.93403 0 0 0
37 8 2 5.94319 1.96654 8.81382 0 0 0
40 8 3 5.79492 1.89764 8.85573 0 0 0
30 6 3 4.16307 2.23109 9.09101 0 0 0
959 927 5 5.55493 2.57677 9.24459 0 0 0
2795 2763 5 4.95754 2.93531 8.98616 0 0 0
2405 2373 5 4.74134 2.68742 9.31251 0 0 0
3254 3222 5 6.15172 3.20962 8.67031 0 0 0
11 3 2 4.88809 3.69774 8.81593 0 0 0
14 3 3 4.73484 3.6308 8.77707 0 0 0
12 3 2 4.80747 3.78404 8.82803 0 0 0
324 292 5 5.96733 3.8935 8.73222 0 0 0
13 3 2 5.43527 4.49807 8.66988 0 0 0
2336 2304 5 4.92717 2.51767 9.71212 0 0 0
