ITEM: TIMESTEP
0
ITEM: NUMBER OF ATOMS
87
ITEM: BOX BOUNDS pp pp pp
0.0000000000000000e+00 1.0000000000000000e+01
0.0000000000000000e+00 1.0000000000000000e+01
0.0000000000000000e+00 1.0000000000000000e+01
ITEM: ATOMS id mol type x y z ix iy iz
2066 2034 5 9.24069 4.12002 1.44619 0 0 0
9 2 3 0.324262 6.30444 1.98772 0 0 0
36 8 1 8.92553 8.06578 1.99601 0 0 0
3128 3096 5 9.79566 5.78875 2.43816 0 0 0
6 2 1 0.397509 6.0734 2.06452 0 0 0
7 2 2 0.596435 6.32723 2.18977 0 0 0
355 323 5 0.408024 7.00095 2.53528 0 0 0
8 2 2 0.126104 7.00093 2.24919 0 0 0
3116 3084 5 0.299457 7.26811 2.30455 0 0 0
10 2 3 0.0512107 6.937 2.35627 0 0 0
32 7 2 8.53866 7.1587 2.3148 0 0 0
31 7 1 8.5093 7.21796 2.16959 0 0 0
34 7 3 8.24122 7.14658 2.18836 0 0 0
1889 1857 5 9.21722 6.75928 2.59358 0 0 0
33 7 2 9.19717 6.86027 2.58204 0 0 0
2645 2613 5 9.34406 7.13173 2.46742 0 0 0
1 1 1 8.32768 7.9845 2.62919 0 0 0
35 7 3 9.0757 7.41703 2.16004 0 0 0
1773 1741 5 9.48341 7.63133 2.5757 0 0 0
40 8 3 9.77999 8.55805 2.35481 0 0 0
37 8 2 9.60952 8.47356 2.00282 0 0 0
38 8 2 9.85327 8.52347 2.55199 0 0 0
1512 1480 5 0.484204 5.97421 3.08334 0 0 0
1794 1762 5 9.29774 5.98019 2.95967 0 0 0
2795 2763 5 9.57693 5.7904 2.98535 0 0 0
1867 1835 5 0.295348 6.28886 3.02073 0 0 0
22 5 2 8.42655 6.33111 2.97616 0 0 0
25 5 3 8.40412 6.40357 2.77447 0 0 0
24 5 3 8.25743 6.39406 2.68253 0 0 0
1286 1254 5 8.61911 6.32096 2.96706 0 0 0
2440 2408 5 9.77431 6.59124 2.96388 0 0 0
2972 2940 5 9.6411 6.24972 3.30309 0 0 0
2581 2549 5 0.757175 7.26139 2.74767 0 0 0
3205 3173 5 8.86737 7.15287 3.28359 0 0 0
2519 2487 5 0.363441 7.36699 3.092 0 0 0
3 1 2 7.87136 7.7351 3.05899 0 0 0
5 1 3 7.87439 7.34853 3.02239 0 0 0
1102 1070 5 7.90302 7.41466 3.15396 0 0 0
314 282 5 7.8418 7.45247 3.0637 0 0 0
4 1 3 8.44059 7.96567 2.77238 0 0 0
2931 2899 5 9.96793 7.5438 2.77849 0 0 0
324 292 5 9.74773 7.59644 3.23012 0 0 0
28 6 2 0.522367 8.43502 3.29351 0 0 0
30 6 3 0.611712 8.36779 3.0532 0 0 0
2 1 2 8.40975 8.23233 2.97432 0 0 0
206 174 5 9.14182 8.56959 2.83903 0 0 0
625 593 5 9.18917 8.05577 3.18155 0 0 0
959 927 5 9.97333 8.2585 2.67351 0 0 0
3254 3222 5 9.24744 5.2896 3.59314 0 0 0
12 3 2 9.84291 5.33225 3.70557 0 0 0
13 3 2 0.029547 5.9684 3.82434 0 0 0
11 3 2 0.619238 5.90679 3.64954 0 0 0
14 3 3 9.987 5.42249 3.39922 0 0 0
15 3 3 9.93706 5.62706 3.60817 0 0 0
1475 1443 5 9.82548 5.87773 3.60815 0 0 0
21 5 1 8.15529 6.50665 3.41858 0 0 0
23 5 2 8.15249 6.3969 3.39754 0 0 0
347 315 5 9.05129 6.01036 3.48118 0 0 0
1609 1577 5 9.16467 6.64431 3.65601 0 0 0
17 4 2 0.412836 6.98344 3.93589 0 0 0
19 4 3 0.193406 6.86713 3.81928 0 0 0
2822 2790 5 7.74479 6.92332 3.63614 0 0 0
864 832 5 8.74206 6.83034 3.97882 0 0 0
2336 2304 5 9.28754 7.12086 3.73457 0 0 0
640 608 5 9.60123 6.8749 3.65167 0 0 0
1123 1091 5 0.654251 7.43727 3.64643 0 0 0
1628 1596 5 8.3517 7.75925 3.80086 0 0 0
276 244 5 8.1487 7.53646 3.77214 0 0 0
296 264 5 8.83284 7.80812 3.76874 0 0 0
2470 2438 5 8.97846 7.79211 3.39158 0 0 0
2296 2264 5 9.62192 7.96612 3.81901 0 0 0
2938 2906 5 9.6958 7.74735 3.9702 0 0 0
2405 2373 5 0.538524 8.35689 3.35088 0 0 0
2832 2800 5 0.556692 8.20537 3.4734 0 0 0
27 6 2 0.811199 8.2821 3.82687 0 0 0
1853 1821 5 9.03817 8.4755 3.98368 0 0 0
20 4 3 9.86426 8.07178 3.70523 0 0 0
2780 2748 5 9.12536 5.79113 4.08606 0 0 0
1538 1506 5 9.07724 6.45025 4.03269 0 0 0
2576 2544 5 9.52085 6.45231 4.41309 0 0 0
16 4 1 0.136396 6.80487 4.16976 0 0 0
3120 3088 5 8.60738 7.07462 4.20124 0 0 0
18 4 2 0.0030588 7.54067 4.03578 0 0 0
685 653 5 0.672107 7.44843 4.44153 0 0 0
29 6 3 0.843144 8.42178 4.23629 0 0 0
26 6 1 0.895321 8.19635 4.27005 0 0 0
3020 2988 5 9.78332 6.97601 4.75705 0 0 0
