ITEM: TIMESTEP
0
ITEM: NUMBER OF ATOMS
87
ITEM: BOX BOUNDS pp pp pp
0.0000000000000000e+00 1.0000000000000000e+01
0.0000000000000000e+00 1.0000000000000000e+01
0.0000000000000000e+00 1.0000000000000000e+01
ITEM: ATOMS id mol type x y z ix iy iz
30 6 3 9.62027 0.261296 5.28202 0 0 0
27 6 2 9.86489 0.00365721 5.04786 0 0 0
28 6 2 0.130111 0.226065 5.44289 0 0 0
2405 2373 5 0.120312 0.29783 5.48561 0 0 0
3120 3088 5 8.88512 0.464269 5.91933 0 0 0
1628 1596 5 9.30996 0.120457 5.66786 0 0 0
2832 2800 5 9.99429 0.429357 5.34069 0 0 0
1867 1835 5 0.263153 1.09104 5.80224 0 0 0
37 8 2 1.28699 1.09698 5.86759 0 0 0
1794 1762 5 9.27767 1.01198 5.35274 0 0 0
2795 2763 5 8.69802 1.21769 5.8238 0 0 0
640 608 5 9.66931 1.08119 5.58063 0 0 0
2576 2544 5 0.64547 1.52875 5.88434 0 0 0
2440 2408 5 9.94582 1.62902 5.48314 0 0 0
1773 1741 5 9.44027 1.74514 5.65688 0 0 0
29 6 3 0.0886392 9.57608 5.66105 0 0 0
26 6 1 0.178482 9.48916 5.92785 0 0 0
2972 2940 5 1.09629 9.90701 5.98216 0 0 0
2336 2304 5 0.0721744 0.622475 6.05267 0 0 0
3128 3096 5 0.481067 0.421974 6.02224 0 0 0
625 593 5 0.913556 0.0679246 6.04578 0 0 0
206 174 5 9.34563 0.637126 6.13958 0 0 0
40 8 3 0.663264 0.680722 6.62031 0 0 0
3205 3173 5 0.15356 1.07023 6.03345 0 0 0
38 8 2 0.920642 0.779219 6.47099 0 0 0
36 8 1 1.34629 0.972854 6.10312 0 0 0
2296 2264 5 8.91375 0.783244 6.54282 0 0 0
2938 2906 5 8.78046 1.02993 6.65131 0 0 0
685 653 5 9.50623 1.07438 6.34683 0 0 0
347 315 5 0.258039 1.63521 6.12353 0 0 0
2519 2487 5 0.749315 1.52413 6.45904 0 0 0
19 4 3 8.60913 1.74693 6.33185 0 0 0
20 4 3 9.01274 1.49958 6.23921 0 0 0
16 4 1 8.68373 1.9684 6.62437 0 0 0
17 4 2 8.8253 1.72681 6.27017 0 0 0
21 5 1 0.434644 8.89245 6.6039 0 0 0
2645 2613 5 1.02495 9.26471 6.17746 0 0 0
35 7 3 0.802814 9.42956 6.31654 0 0 0
32 7 2 1.33894 9.44299 6.57193 0 0 0
10 2 3 9.32323 9.92112 6.53511 0 0 0
355 323 5 9.06628 9.92905 6.51311 0 0 0
9 2 3 9.39754 9.74713 6.40765 0 0 0
6 2 1 9.95194 9.48677 6.50133 0 0 0
8 2 2 9.52606 9.5653 6.59333 0 0 0
1102 1070 5 0.0479714 0.387322 6.74894 0 0 0
3020 2988 5 0.838315 0.155452 6.98539 0 0 0
31 7 1 1.53969 0.275049 6.73319 0 0 0
33 7 2 1.5307 0.220936 6.68918 0 0 0
296 264 5 9.32387 0.55756 7.03267 0 0 0
314 282 5 9.98909 0.420087 6.93074 0 0 0
5 1 3 9.77751 0.336118 7.02086 0 0 0
2931 2899 5 0.382024 1.01979 7.17269 0 0 0
2066 2034 5 0.190065 1.16516 6.78805 0 0 0
959 927 5 0.729732 0.852091 6.78865 0 0 0
18 4 2 8.62624 0.895752 6.74505 0 0 0
1609 1577 5 9.18849 1.40348 6.83274 0 0 0
2780 2748 5 9.8486 1.59081 6.72707 0 0 0
2822 2790 5 9.60146 1.41631 7.3326 0 0 0
1538 1506 5 0.0248633 8.95427 7.25584 0 0 0
24 5 3 0.566916 8.81505 6.69467 0 0 0
25 5 3 1.175 9.0704 7.20694 0 0 0
22 5 2 0.880798 8.7119 7.00391 0 0 0
13 3 2 8.65433 9.14927 6.89986 0 0 0
12 3 2 8.44535 9.02545 6.8629 0 0 0
14 3 3 8.42619 9.32977 7.3134 0 0 0
864 832 5 0.260892 9.73579 7.04865 0 0 0
1889 1857 5 1.29328 9.36481 7.25134 0 0 0
34 7 3 1.31839 9.34936 6.70259 0 0 0
15 3 3 8.48927 9.7429 6.95127 0 0 0
7 2 2 9.23731 9.61245 6.69681 0 0 0
1475 1443 5 8.76051 9.97468 7.12477 0 0 0
3116 3084 5 8.74631 9.89086 6.82714 0 0 0
324 292 5 9.37398 9.57444 7.28245 0 0 0
3 1 2 0.139996 0.266679 7.76849 0 0 0
1853 1821 5 1.06376 0.0958428 7.41132 0 0 0
11 3 2 8.57479 0.189326 7.78576 0 0 0
1 1 1 9.89352 0.376433 7.95675 0 0 0
2 1 2 9.96142 0.613081 7.63844 0 0 0
1512 1480 5 0.342226 1.14193 7.57331 0 0 0
1123 1091 5 9.42226 1.08531 7.40857 0 0 0
2470 2438 5 0.309791 8.81509 7.52946 0 0 0
23 5 2 1.16539 8.88162 7.46623 0 0 0
1286 1254 5 0.822693 9.10078 7.42135 0 0 0
2581 2549 5 9.88854 9.19953 7.33996 0 0 0
3254 3222 5 0.588097 9.72277 7.53704 0 0 0
276 244 5 9.81186 9.681 7.66275 0 0 0
4 1 3 9.84185 0.4625 8.0123 0 0 0
