ITEM: TIMESTEP
0
ITEM: NUMBER OF ATOMS
87
ITEM: BOX BOUNDS pp pp pp
0.0000000000000000e+00 1.0000000000000000e+01
0.0000000000000000e+00 1.0000000000000000e+01
0.0000000000000000e+00 1.0000000000000000e+01
ITEM: ATOMS id mol type x y z ix iy iz
3116 3084 5 8.53235 7.80496 5.78201 0 0 0
10 2 3 8.0828 7.94147 5.95708 0 0 0
13 3 2 8.73341 7.62999 5.63773 0 0 0
15 3 3 8.85103 7.0404 6.26634 0 0 0
14 3 3 8.954 7.27773 6.40334 0 0 0
12 3 2 8.77973 7.25784 6.1893 0 0 0
1475 1443 5 8.55085 7.37053 6.19988 0 0 0
11 3 2 9.07449 7.96591 6.17869 0 0 0
6 2 1 8.24267 8.55237 6.18971 0 0 0
8 2 2 8.457 8.26873 6.10539 0 0 0
32 7 2 9.4006 8.63003 6.62501 0 0 0
7 2 2 8.13588 8.88044 6.63119 0 0 0
355 323 5 7.12274 7.2512 7.29455 0 0 0
16 4 1 8.49795 7.00551 7.28859 0 0 0
19 4 3 8.68003 7.23691 7.08725 0 0 0
2780 2748 5 7.5051 7.66299 6.81595 0 0 0
3020 2988 5 7.41043 7.36888 7.32728 0 0 0
2581 2549 5 8.41641 7.82493 6.72533 0 0 0
2938 2906 5 9.17771 7.71216 7.14608 0 0 0
18 4 2 9.17894 7.4711 7.31481 0 0 0
2296 2264 5 9.42636 7.58425 7.08036 0 0 0
2795 2763 5 7.28754 8.372 7.12633 0 0 0
2470 2438 5 7.26352 8.56429 6.66829 0 0 0
276 244 5 7.66416 8.06325 6.72337 0 0 0
1609 1577 5 8.00197 8.124 6.97727 0 0 0
34 7 3 9.19989 8.57618 6.8693 0 0 0
324 292 5 9.73262 8.01 6.89521 0 0 0
9 2 3 8.35146 8.82617 6.70268 0 0 0
31 7 1 8.93341 8.77988 6.71833 0 0 0
29 6 3 8.5981 6.44475 7.63525 0 0 0
26 6 1 8.6798 6.60428 7.59444 0 0 0
347 315 5 7.93088 7.07122 7.63549 0 0 0
30 6 3 9.33314 7.05514 7.92815 0 0 0
2832 2800 5 9.35784 7.0928 7.90703 0 0 0
1794 1762 5 6.93857 7.96343 7.4024 0 0 0
2066 2034 5 7.49008 7.93731 7.46041 0 0 0
1512 1480 5 7.42607 7.52909 7.91214 0 0 0
17 4 2 8.66837 7.33435 7.42489 0 0 0
20 4 3 8.89834 7.51994 7.35809 0 0 0
1123 1091 5 7.29498 8.64899 7.95956 0 0 0
2931 2899 5 7.49719 8.62274 7.56891 0 0 0
1853 1821 5 7.80656 8.1163 7.71083 0 0 0
2405 2373 5 8.27522 8.11045 7.79209 0 0 0
3205 3173 5 8.62024 8.30025 7.3715 0 0 0
2336 2304 5 8.67341 8.54674 7.78625 0 0 0
1889 1857 5 9.28595 8.63609 7.51625 0 0 0
625 593 5 7.23798 9.04588 7.99384 0 0 0
1538 1506 5 8.09627 8.76125 7.54602 0 0 0
33 7 2 9.54682 8.82332 7.42698 0 0 0
2645 2613 5 9.77396 8.78941 7.54893 0 0 0
35 7 3 9.50082 8.7698 7.4273 0 0 0
2519 2487 5 7.32104 7.28271 8.4028 0 0 0
1628 1596 5 7.29816 6.95903 8.28882 0 0 0
40 8 3 8.01242 7.1874 8.3728 0 0 0
959 927 5 8.08334 7.26629 8.23576 0 0 0
27 6 2 9.23036 6.84671 8.21936 0 0 0
28 6 2 9.51802 6.89503 8.22 0 0 0
1867 1835 5 8.74297 7.60715 8.23831 0 0 0
5 1 3 9.41024 7.9379 8.62043 0 0 0
314 282 5 9.73382 7.93985 8.02014 0 0 0
1102 1070 5 9.69787 7.87187 8.16707 0 0 0
3 1 2 9.43907 7.91288 8.16912 0 0 0
3120 3088 5 6.98885 8.05301 8.63467 0 0 0
640 608 5 7.23548 8.30909 8.32498 0 0 0
864 832 5 7.9823 8.21634 8.4599 0 0 0
3254 3222 5 8.26276 8.46781 8.4538 0 0 0
1773 1741 5 8.92549 8.26353 8.44116 0 0 0
3128 3096 5 8.71426 8.02445 8.00548 0 0 0
2822 2790 5 7.92315 9.05518 8.20209 0 0 0
2576 2544 5 7.90286 8.87745 8.6062 0 0 0
22 5 2 9.06043 9.22699 8.03303 0 0 0
23 5 2 8.81193 9.24783 8.32718 0 0 0
1286 1254 5 9.13545 9.07175 8.39314 0 0 0
25 5 3 9.10021 9.22435 8.11038 0 0 0
4 1 3 9.83628 8.8051 8.66415 0 0 0
2 1 2 9.86379 8.75736 8.47566 0 0 0
36 8 1 8.34042 6.61132 8.93118 0 0 0
37 8 2 8.55275 6.51805 9.13615 0 0 0
38 8 2 8.7481 6.8133 8.78908 0 0 0
685 653 5 7.79901 7.9476 8.83489 0 0 0
296 264 5 8.55269 7.64215 8.81656 0 0 0
2972 2940 5 8.82026 7.34431 9.07029 0 0 0
2440 2408 5 9.30723 7.47292 8.72967 0 0 0
206 174 5 7.4251 8.37969 8.95124 0 0 0
24 5 3 8.56108 9.11287 8.78072 0 0 0
21 5 1 8.42148 9.11773 9.01666 0 0 0
1 1 1 9.66867 8.79192 8.77887 0 0 0
