ITEM: TIMESTEP
0
ITEM: NUMBER OF ATOMS
87
ITEM: BOX BOUNDS pp pp pp
0.0000000000000000e+00 1.0000000000000000e+01
0.0000000000000000e+00 1.0000000000000000e+01
0.0000000000000000e+00 1.0000000000000000e+01
ITEM: ATOMS id mol type x y z ix iy iz
3254 3222 5 8.11029 1.35947 0.918817 0 0 0
1889 1857 5 8.07173 1.91798 1.23736 0 0 0
1609 1577 5 7.9789 0.42108 1.81403 0 0 0
1794 1762 5 8.02773 0.088501 1.80777 0 0 0
1773 1741 5 8.46844 0.654307 1.47636 0 0 0
2336 2304 5 9.01916 0.647671 1.68186 0 0 0
2780 2748 5 8.77068 0.258459 1.49186 0 0 0
28 6 2 6.55302 1.3177 1.74797 0 0 0
2470 2438 5 7.15805 0.911738 1.57552 0 0 0
3128 3096 5 8.01285 1.00593 1.36135 0 0 0
30 6 3 6.86441 1.52207 1.56453 0 0 0
2832 2800 5 6.92889 1.50839 1.83521 0 0 0
2795 2763 5 7.42201 1.43125 1.49392 0 0 0
1628 1596 5 7.91415 1.51669 1.88553 0 0 0
22 5 2 7.59684 2.5097 1.52232 0 0 0
23 5 2 7.89707 2.13227 1.59135 0 0 0
25 5 3 7.65245 2.33193 1.49509 0 0 0
1286 1254 5 7.50747 2.21711 1.49665 0 0 0
21 5 1 7.1256 2.73239 1.89521 0 0 0
24 5 3 7.15069 2.79578 1.86282 0 0 0
206 174 5 8.27314 2.69774 1.71896 0 0 0
4 1 3 7.20056 9.54226 1.95384 0 0 0
276 244 5 7.71011 9.46461 1.68156 0 0 0
685 653 5 8.06752 9.75842 1.72788 0 0 0
1102 1070 5 7.05258 0.517226 2.19075 0 0 0
314 282 5 6.9104 0.482019 2.52448 0 0 0
5 1 3 6.96751 0.262562 2.26661 0 0 0
3 1 2 6.7451 0.101553 2.02311 0 0 0
3205 3173 5 8.16544 0.31606 2.42763 0 0 0
27 6 2 6.65378 1.20854 2.18894 0 0 0
26 6 1 6.27034 1.22441 2.34589 0 0 0
1853 1821 5 7.65258 0.939494 2.19096 0 0 0
1867 1835 5 8.53053 0.800181 2.436 0 0 0
1512 1480 5 9.08047 1.1255 2.06849 0 0 0
29 6 3 6.63776 1.42056 2.30064 0 0 0
2405 2373 5 6.81535 1.48786 2.11231 0 0 0
2931 2899 5 7.88782 1.64038 2.58472 0 0 0
2581 2549 5 7.51256 1.78174 2.32219 0 0 0
2519 2487 5 8.4059 1.44358 2.00941 0 0 0
1538 1506 5 8.6229 1.84716 2.48475 0 0 0
8 2 2 9.35438 1.44196 2.50184 0 0 0
19 4 3 6.65543 2.08941 2.22381 0 0 0
16 4 1 6.50983 2.31613 2.16638 0 0 0
17 4 2 6.75844 2.09449 2.3481 0 0 0
864 832 5 7.81032 2.12907 2.62506 0 0 0
3020 2988 5 8.55307 2.24793 2.28393 0 0 0
2440 2408 5 8.05641 2.21826 2.19555 0 0 0
2972 2940 5 7.64339 2.90154 2.5211 0 0 0
1123 1091 5 8.25198 3.06272 2.26595 0 0 0
2 1 2 7.28821 9.88441 2.35743 0 0 0
1 1 1 6.98174 9.66147 2.03911 0 0 0
296 264 5 8.74406 9.65479 2.16077 0 0 0
347 315 5 7.75111 0.237135 2.95348 0 0 0
959 927 5 6.77623 0.849055 3.16544 0 0 0
625 593 5 7.38308 1.00589 2.7224 0 0 0
2822 2790 5 7.68569 1.02837 2.89309 0 0 0
33 7 2 8.57421 1.2323 3.07667 0 0 0
35 7 3 8.47935 1.13459 3.18543 0 0 0
32 7 2 8.39972 1.19025 3.02007 0 0 0
324 292 5 6.82265 1.47474 3.08699 0 0 0
640 608 5 7.34521 1.38219 3.13221 0 0 0
9 2 3 9.21896 1.49309 3.00521 0 0 0
6 2 1 9.41259 1.50965 2.73544 0 0 0
2296 2264 5 7.28375 2.06734 2.94477 0 0 0
20 4 3 7.03129 2.24875 2.71556 0 0 0
18 4 2 7.23984 2.48828 2.98211 0 0 0
2938 2906 5 7.51552 2.11119 3.16496 0 0 0
1475 1443 5 8.32386 2.61901 3.32834 0 0 0
3116 3084 5 8.30479 2.39431 3.17415 0 0 0
13 3 2 8.50966 2.66665 3.22095 0 0 0
10 2 3 9.49478 2.1759 2.76113 0 0 0
7 2 2 9.47512 2.02816 2.91893 0 0 0
355 323 5 9.40063 2.24908 2.99849 0 0 0
14 3 3 8.64418 3.01438 2.74609 0 0 0
11 3 2 8.88054 3.02035 2.70123 0 0 0
12 3 2 8.76066 3.2864 3.03207 0 0 0
3120 3088 5 8.07925 9.87718 2.76785 0 0 0
37 8 2 7.28982 0.378546 3.6482 0 0 0
36 8 1 7.20611 0.173736 3.79118 0 0 0
38 8 2 6.72382 0.616567 3.38917 0 0 0
31 7 1 8.31048 0.518217 3.51413 0 0 0
40 8 3 6.84525 0.816529 3.37947 0 0 0
34 7 3 8.10841 0.902493 3.47768 0 0 0
2576 2544 5 7.89453 1.75459 3.56613 0 0 0
2645 2613 5 8.30121 1.67781 3.37905 0 0 0
15 3 3 8.56748 2.44369 3.35878 0 0 0
2066 2034 5 3.50023 8.95194 7.8166 0 0 0
