LAMMPS data file via write_data, version 29 Oct 2020, timestep = 3500

3415 atoms
5 atom types
47 bonds
7 bond types

0.0 10.0 xlo xhi
0.0 10.0 ylo yhi
0.0 10.0 zlo zhi

Masses

1 1
2 1
3 1
4 1
5 1

Pair Coeffs # dpd

1 25 1
2 25 1
3 25 1
4 25 1
5 25 1

Bond Coeffs # harmonic

1 4 1
2 4 1
3 4 1
4 4 1
5 4 1
6 4 1
7 4 1

Atoms # bond

2667 2635 4 9.116589156912472 6.16186065116551 8.798931432117003 -1 0 -2
3412 3380 4 9.59708662277254 5.472504248127818 5.204565609209551 0 0 1
564 532 4 4.669443211206113 4.440934471028554 5.4028914446634095 0 0 2
744 712 4 7.488048109533244 0.5062527860046435 8.987361142476137 0 1 -2
1352 1320 4 7.82617924789179 2.350573080984298 6.94748871239606 2 0 0
823 791 4 3.727009287511547 2.997955621216823 2.8655097194921457 1 1 0
2166 2134 4 6.148311389849699 9.237452669077156 2.310910037888572 -1 0 1
1203 1171 4 6.7127913327398625 8.42247425062336 0.07682152365302183 -2 0 0
1905 1873 4 2.9812434635935663 4.945615125906798 3.6048835530420167 1 0 0
1186 1154 4 7.4039011627099045 1.243555924700081 3.5592843018696305 1 1 -1
1184 1152 4 7.34642127030008 2.2836708032847644 9.619655228141346 0 -1 -2
538 506 4 5.454554593047531 0.6277054973476028 3.899321533639604 0 -1 1
1115 1083 4 6.229855840051418 0.3372707483228154 5.358944708711972 -2 0 -1
1185 1153 4 8.3227930794714 9.326348026596195 3.1458308607352325 0 -2 1
976 944 4 8.987975183700048 8.509876658440158 4.837081837443736 1 0 0
3190 3158 4 1.359653298630834 8.05228448437517 3.0010206364360825 2 -1 -1
66 34 4 4.416914060257926 1.7528497097838949 4.285362690310825 0 -1 0
1197 1165 4 9.908893351473191 1.8909296256673496 0.7216343407986641 1 2 -1
1191 1159 4 9.06509577233596 1.8068010173302322 6.401465965370845 0 0 -1
3050 3018 4 8.217475437139617 5.083226563386419 1.357370473947615 0 -3 -2
808 776 4 5.265887978054345 9.598066331009107 1.041135034349829 0 0 0
556 524 4 4.739229900092258 4.515380375842111 8.721828343783262 -1 -2 0
2479 2447 4 4.276412523414177 2.9210620930296973 9.187912577224097 -1 -1 1
1553 1521 4 0.6109333484725235 5.953616840257362 6.575602001725375 1 1 0
2409 2377 4 4.040726271666116 9.257994262065537 9.774843836829817 1 0 0
438 406 4 3.9381669549769125 0.7220777112143693 2.3212947388114005 0 1 2
1162 1130 4 6.542933493603044 1.8379976175914565 5.868872036140447 1 1 2
3182 3150 4 3.7160867305804572 4.320429276868574 3.5113411345153924 0 0 0
2999 2967 4 9.644334499489268 4.576430138104324 4.4114704104276266 1 -1 1
2763 2731 4 7.0453476389645555 6.77334106595031 0.3106686960702782 -1 1 1
2520 2488 4 4.88149235340122 4.29621811295776 1.5902153079291972 0 0 2
2941 2909 4 0.6089525395420059 9.535419458183783 3.999268183974121 0 1 0
1775 1743 4 2.0386959205361626 8.952668493399718 4.295535261049043 -1 0 0
3306 3274 4 1.4135380850630967 7.743718119586672 3.8638846211725664 2 0 -1
2115 2083 4 1.7881115480911778 9.372348156625023 6.4112554982801875 0 -1 1
2473 2441 4 9.692658002015694 9.305702162880452 2.675991493418624 1 1 -1
715 683 4 6.202189593381861 9.422589281227053 6.940385850545362 0 -2 1
529 497 4 3.3109953980028184 6.769674974945034 1.1672251388250372 1 0 1
1292 1260 4 7.106142482365828 2.2681430499104303 8.945505025773798 0 -1 -2
3252 3220 4 9.647022653054412 0.032625383862231426 1.0173760743000715 0 1 1
567 535 4 8.021822120544662 6.030387062574568 6.896045465902123 -1 1 -1
1605 1573 4 3.2872307655897206 5.162900058764302 8.067297957757539 2 -2 0
1856 1824 4 8.367725367365045 9.279604732047705 0.6989311331201751 2 1 0
977 945 4 8.139040370836053 6.694595065353878 4.737745610738446 -2 1 -2
2868 2836 4 1.3576373945231348 6.852135771182863 6.930903877906972 2 0 2
3259 3227 4 5.966078525614455 6.921826580666593 5.039745946819223 1 0 0
1808 1776 4 5.630718780887103 9.372631659811526 9.213415126855496 1 0 1
2717 2685 4 6.8844791413514255 8.863158646391117 9.790538142074567 0 1 0
518 486 4 5.390759510569137 7.24724363443589 5.035228918803409 1 0 -1
700 668 4 3.4763872045731397 2.9349962139300385 7.7375190115215595 1 -1 1
1829 1797 4 8.26555156995726 8.00286557013524 1.7146926940048886 -1 0 0
907 875 4 5.477980200318378 0.9555157105271835 7.13243780520969 1 1 -1
2768 2736 4 7.593544541354924 8.199752234628992 1.3290047790942092 1 -1 0
1862 1830 4 4.649884058585676 9.138159711628973 4.8439956884667605 2 0 1
3401 3369 4 8.358874477679521 6.623697534880936 1.4017629045028952 2 -1 0
1092 1060 4 8.103915979950605 1.7888845863772622 2.327755533326302 0 -1 1
3321 3289 4 3.6666571386416438 6.914652524453308 5.74409423194163 1 -1 2
1909 1877 4 4.6516726087172575 7.521219499661352 8.376458515337378 1 -1 1
1983 1951 4 7.905624003327897 5.247460554544518 0.4642108308269497 -2 -1 -1
2548 2516 4 7.628954702701 2.400030201867776 4.685861946260009 0 0 -2
2474 2442 4 1.7338647419640714 8.790921047588817 9.770676400250741 0 -1 -2
2441 2409 4 5.2654180951677105 5.954268828179576 5.216251190380748 1 -1 2
3047 3015 4 1.3716517053394626 7.88853376655228 8.094154844829117 1 0 -1
3114 3082 4 5.236796427975883 5.940856914128069 9.836175037036233 1 -3 -2
55 23 4 8.145143970647787 6.1069500460213115 2.261747835446356 1 0 -2
1818 1786 4 6.539223754374005 7.800129910880383 2.3147067292439583 0 -2 1
1820 1788 4 1.100346629717179 3.7044394310702065 0.8745623800659537 -1 0 0
1695 1663 4 3.5792525163175295 6.153438814755595 1.5096475759822225 -1 1 3
2838 2806 4 7.648994629855009 2.1526019397530014 5.591739835274651 -2 0 -2
624 592 4 5.858240055788156 4.3918248088926655 6.391317379538438 0 0 -1
2034 2002 4 1.892647292800977 5.635763828427319 2.2276010579084304 0 2 0
430 398 4 3.215633537051882 2.291791824690283 0.48201464348802636 2 2 1
3264 3232 4 5.571430209751758 4.9114509187046504 8.700615073660869 0 0 1
293 261 4 5.744205217579745 2.16137126979271 1.0160816883061414 0 -1 1
106 74 4 0.7190900742620701 6.825322715063891 5.145770221854385 0 -1 0
742 710 4 5.968761381014696 2.574908304285925 4.203731433109551 2 1 0
572 540 4 1.8742621323671123 3.5081764066693744 5.774563909235482 0 1 0
200 168 4 4.03186508784731 8.007255340357844 7.101145309720095 0 -1 0
169 137 4 3.9887136448000855 7.70810205962574 4.817393823531924 0 0 0
1129 1097 4 1.2157841530702156 3.8543853836866893 5.743039530288932 0 2 0
2714 2682 4 4.604641902493005 8.617273159880291 5.126537805524015 1 1 1
1446 1414 4 2.2913544985899805 0.2727132442738359 1.1928685989105827 0 2 0
218 186 4 2.962979411882009 1.6927178250245838 8.311437855579332 2 -1 1
3029 2997 4 0.9073940609192985 8.617386818658296 2.688100174851092 0 2 1
2900 2868 4 2.3647642769404635 7.837715612928867 8.627176390033762 0 -1 0
421 389 4 2.043975925886959 1.0419343520444042 7.155157882134286 0 2 0
1796 1764 4 4.20239033295476 9.930107924770235 5.168334449552198 -1 -1 -1
1106 1074 4 4.87764990313375 1.4598678305622474 8.041441676807171 1 0 0
2312 2280 4 5.878092139574051 1.2659708320324585 6.826156169125456 0 0 -1
363 331 4 8.21554872509652 2.4789129595990054 8.2785852454685 -1 2 1
1878 1846 4 1.5903808068606287 0.0471291604211795 6.465666740318665 0 -1 0
498 466 4 6.276161716448113 8.90279981912601 4.344174348999122 0 0 1
3228 3196 4 6.759812157285382 0.7744127169339948 6.960405049860879 0 0 -1
3320 3288 4 8.085338862008323 5.773893182140262 1.8318858773461633 0 1 -1
2534 2502 4 9.571185833086242 3.1048914668697227 0.9413207548420607 1 1 1
815 783 4 5.2425846206669675 7.1694806417571035 7.607192283628792 -1 -1 0
2040 2008 4 2.880029575278385 0.4098064563347824 1.5163507501281253 1 0 1
2101 2069 4 5.458751516166544 9.853107060084994 0.44819599086141965 -1 -2 -1
3144 3112 4 2.8441896350400957 2.6920201553524317 0.8545479180600238 1 1 0
2302 2270 4 8.397335844789964 3.705257320229661 5.725671501856957 -1 -2 0
468 436 4 0.5521494524180739 5.066753190948189 9.805223713055103 0 0 -1
3024 2992 4 9.863815551031152 5.73076919344359 9.21469871873253 0 0 0
2806 2774 4 2.2850089479723277 6.008189970388302 8.603504090475614 1 0 -1
1048 1016 4 9.449880198280244 1.6580429508693866 1.5913443465293755 1 2 3
3198 3166 4 4.744059929949826 7.889282653236105 2.838765221510173 0 -1 -2
1880 1848 4 9.254495935388295 7.807417313379639 0.6062586923493166 1 2 2
786 754 4 2.8175759018209856 4.468064535270394 0.3972124563855435 -1 0 0
970 938 4 3.878153014930432 8.325960380543702 3.125334543118032 -1 1 0
997 965 4 1.6418441898397507 8.88763177792831 0.9517501984185863 0 -2 -1
1786 1754 4 4.0260136604187275 3.3829357180024773 9.964647652179547 0 0 -1
2104 2072 4 1.7099176145538855 0.2474905840898184 5.3190046475737285 1 -1 1
966 934 4 5.309979737307513 1.9661308232690604 4.2163479832157655 -1 0 3
2973 2941 4 4.178030747689365 4.262912695341085 7.840203783428482 0 -1 0
1881 1849 4 9.0788977806784 4.732085745651269 8.596019498321205 1 -1 0
2723 2691 4 3.001100982524312 5.928716072355162 1.9435953277327727 0 -1 1
1428 1396 4 3.9239777339382407 3.6898812281278595 9.40240428154053 0 -1 -2
1268 1236 4 5.235296316224565 0.27539400765401995 5.001465902661395 0 -1 -1
1625 1593 4 2.291093374302392 9.26192597259121 0.1648886462454361 0 0 0
1017 985 4 3.3633453290775037 9.564276537931018 6.886335090028967 1 0 1
607 575 4 2.2945996319986603 7.9656875349918606 4.803698070034646 -1 0 1
1581 1549 4 8.361371305046827 5.371126030277486 9.303638172685641 -2 -1 -3
1070 1038 4 6.038008035409988 9.705014026768204 9.669727043361037 -1 -2 0
866 834 4 7.962401828544165 4.755720614677558 8.74741146401256 0 0 0
1941 1909 4 9.108810936626567 5.1857887750340055 2.8850483728188094 0 2 1
3387 3355 4 7.626195049763984 1.6209822578631556 2.9660577369362113 -1 1 0
2602 2570 4 9.5715939658561 8.059452709760956 0.5023300449981977 0 -1 1
203 171 4 4.745219531839142 5.622179390979554 6.342088224177771 -1 1 -2
2485 2453 4 9.930422791657373 2.05370518609279 7.294735852633227 0 -1 0
2676 2644 4 8.755859377180071 4.834218783770236 7.320369263453231 3 1 1
3078 3046 4 7.045274192351348 4.53461593368828 8.778517341092064 0 1 1
2854 2822 4 1.910217448298656 0.1505399082826969 3.1289593685706127 2 -1 0
2516 2484 4 8.81228552504508 7.925576103367962 9.571329566909544 0 0 1
2079 2047 4 7.473513512558105 1.4670013160068058 0.881542826761231 1 1 1
2668 2636 4 2.426415295877922 6.480457765985444 1.8702935506306526 0 0 0
728 696 4 1.6017394861150616 0.7214309974485213 1.2138837842606631 0 1 1
2959 2927 4 5.068603004019184 1.7849844300829874 8.624819942882953 1 2 1
798 766 4 3.9322825327675153 1.0394675655563996 9.627117173692985 1 1 -2
1421 1389 4 3.9679061745513104 4.158011427464689 6.458502193816392 2 0 1
87 55 4 5.095733102673375 0.9684137339686492 4.242404012420892 -1 2 -2
1323 1291 4 4.652479302579327 2.9692841187995116 3.2735953888038916 1 1 0
951 919 4 2.4645192808195953 4.144984892499685 4.635185844893855 1 2 1
185 153 4 0.36072244593168157 2.243723209201852 4.6347662607008315 -1 -1 0
2043 2011 4 4.519779278125996 1.1181673887448698 2.0279082015479073 1 0 2
3268 3236 4 1.199385529209722 8.151111251395132 6.781329925352221 -1 1 3
2293 2261 4 5.900604424653312 3.200783863237585 1.0607828265133958 -2 -1 2
124 92 4 7.495179093950533 9.503455712342342 4.997151115260092 0 1 -3
1127 1095 4 7.7459332530643294 6.79751046370801 2.8165171740771093 1 -1 0
1782 1750 4 5.160960677667196 6.9766862522065844 8.506849026589876 0 1 1
3131 3099 4 3.2551387973963206 4.922364309075808 4.099928336604103 -1 2 -1
2560 2528 4 8.451759545222657 2.7071607699312077 6.399775124539368 -1 1 -1
1408 1376 4 7.251242269811579 7.216124303498984 9.848960780779672 -2 0 -2
304 272 4 5.247464416789768 9.881607076053832 4.20962305835146 1 1 1
2294 2262 4 9.489535982067395 9.351900045838287 9.275589559342173 -1 0 -2
692 660 4 1.6869465462283963 5.358918724276154 5.306287690735001 0 1 1
1923 1891 4 2.601008997810888 3.995191530078524 9.68807123634484 1 -1 -3
330 298 4 5.443226796032409 6.243096682718353 5.73934789733035 -1 1 0
717 685 4 6.346866879107195 4.655610349301113 0.0826107253453165 -1 1 0
3219 3187 4 7.935699136010845 7.962825483769877 0.6091943584471752 1 -1 1
657 625 4 5.936058922537411 2.5562855353661864 5.803729155362252 1 0 1
3026 2994 4 9.250173120981202 0.5900987076522358 9.104675251040621 0 2 -1
1324 1292 4 6.509045344010223 5.803114847654568 9.964708689988667 0 -2 0
851 819 4 4.587904555312265 4.19367621447713 0.7357852002299552 0 1 0
724 692 4 9.52577996763515 8.035583072441684 5.385209248199547 -2 2 0
2464 2432 4 5.525392192105877 6.533965638456621 3.629485040520096 -2 0 0
1346 1314 4 6.941659411882807 4.480101578133933 1.208874223688241 0 -1 1
2383 2351 4 4.870789044895057 9.538204505343483 2.894912135192995 1 -1 1
524 492 4 7.18404172382635 1.3306705395014224 1.2930185911889922 -1 1 1
581 549 4 8.880627506920383 7.166586322251847 0.472151803267358 1 2 0
2894 2862 4 6.982506969972675 7.526403174595629 2.8535373516164757 -1 -1 -1
1842 1810 4 6.903309063386582 2.5486126435846757 8.036194026999642 1 2 -1
784 752 4 1.2192568133192958 9.000204337239591 2.3663565162956317 0 1 1
2136 2104 4 1.7244163790270646 7.4734751075221535 7.452772292934554 0 -1 -1
546 514 4 0.8015418295217904 9.728568339430671 5.149168968525268 1 0 -1
2957 2925 4 0.34287032824252694 9.55136496535035 2.189324518711572 1 0 0
3140 3108 4 8.571931945697806 4.760020466891224 9.358216844168169 0 4 0
3115 3083 4 0.18144312883627978 8.326054789668136 0.016652737297780537 1 -3 1
1154 1122 4 5.559228281278899 3.4887807959557353 9.422629194010474 1 0 -2
1331 1299 4 0.26595738658535945 3.434190898326357 9.353943357921356 0 0 -2
1636 1604 4 4.5437591708812 0.5510474800618377 3.3709605542013805 -1 1 0
2987 2955 4 4.406748086690708 1.7566565451723402 1.1514835336456066 1 1 0
949 917 4 2.0030058633415595 6.366147226000353 3.580320875841555 -1 -1 2
2108 2076 4 6.8159641720078445 1.247153907214315 2.2422599954751963 0 0 -1
1025 993 4 9.115049051469555 1.8240855357510575 0.6072969763859423 1 2 1
2436 2404 4 2.0039344414101463 0.3819703739675482 5.867812267249628 0 1 0
2107 2075 4 1.7373324878138214 5.405258804967232 1.7207830399545858 0 -1 1
1460 1428 4 6.411092799864605 9.989237382387277 8.853611755152121 -1 -1 -1
244 212 4 2.507896117500666 9.246705902497276 3.022245398867237 1 0 0
2711 2679 4 3.5177633691052645 8.905655071325814 5.724932055915173 -1 -1 0
930 898 4 0.563391795898 1.964400519095754 6.127948771083641 1 2 -1
1135 1103 4 0.6684961127251402 1.143551323437076 3.651699713347983 -3 1 1
2089 2057 4 7.899798788567692 9.26111282378601 3.8885238514724136 0 0 2
872 840 4 2.0087097424519693 1.9988540589370247 7.497574414861109 0 -1 -1
251 219 4 8.901273586391786 0.4580273263002806 9.80403045930172 0 1 1
2871 2839 4 0.5399071821794725 1.1632279513604633 2.691279758608224 -1 1 0
806 774 4 6.728069434238564 4.431729348112549 9.780178712939868 1 1 -1
1588 1556 4 0.28226181455519816 8.536005624023968 5.171626805971941 0 1 0
31 7 1 8.93341338118402 8.779879156666077 6.71833046042007 0 0 -1
1895 1863 4 3.080093374159699 6.830201606906159 5.926360777051713 1 -1 1
2362 2330 4 3.113082725566121 2.387716027926548 2.2227024526356787 0 2 1
2749 2717 4 7.781337020734378 9.958080467823228 1.1931268284071157 2 0 -1
1755 1723 4 4.210513361967752 5.701804565038022 6.796932279399157 0 0 2
2510 2478 4 5.876621993608234 1.0202838705837625 9.119763496088453 0 0 0
70 38 4 6.244817528112154 3.6908079333951394 9.457527158991851 0 1 0
2361 2329 4 3.6120291764426224 4.957018857420793 5.036696992092676 0 3 1
389 357 4 4.542889928828864 2.2128335904048306 9.92946460910611 -1 -1 -1
2110 2078 4 8.897225422912243 4.076909924552409 8.09241791185327 0 -1 2
2048 2016 4 2.8055523364312887 5.286653659891549 5.5012380522705815 -2 1 0
414 382 4 4.633124823232311 6.167972216599922 8.176375085855407 -1 1 0
1868 1836 4 0.6416013406286977 5.256356258138475 1.5537057395297065 1 -1 -1
1209 1177 4 3.925694312714295 2.270283281906748 3.880149425398958 0 1 0
158 126 4 1.9045627072599163 1.540643731421133 1.7613688680836066 0 0 0
3297 3265 4 2.1134463743045346 4.976121764887086 0.39238993574911624 -1 1 -1
1361 1329 4 0.46227369428784715 7.621055630241109 5.869238454134123 1 -2 0
2590 2558 4 1.7848228113258717 1.8449292941325866 6.36292873068914 1 0 -2
1136 1104 4 5.763310799615492 1.8867108737748348 9.650497737287232 2 0 -1
664 632 4 9.341016792007864 0.259904366385986 7.83944184693233 -2 2 0
2291 2259 4 4.445266293821852 3.3044155719664414 0.8257722021022114 1 0 -2
1770 1738 4 7.389810417435478 6.4235279228258335 7.416302191454144 -1 0 0
2545 2513 4 2.116475470050978 9.29461434336488 7.883643393429016 -1 -1 -1
2222 2190 4 7.1237664925285555 7.7154872801791035 0.15862525543294223 1 0 0
42 10 4 1.4892124748567128 2.2071305863663313 7.556035674419746 0 0 -2
2577 2545 4 0.685023122658055 9.233689009912975 5.955269543443097 1 -1 0
374 342 4 2.9534725849685466 4.786241294382843 4.138458106515823 0 0 -1
762 730 4 3.4355543088282796 4.387851481229753 2.1568334986655096 0 -1 0
2184 2152 4 9.308481645655165 4.429255500146793 6.668271858939985 0 1 1
1117 1085 4 3.2123081018090343 5.044715740787064 1.7663743339132119 1 3 3
1938 1906 4 5.632784489054958 2.1521027365320284 1.0050302649334735 1 0 -1
1764 1732 4 6.3471007980982215 2.897301179156244 6.3813378372939455 0 -2 -1
3378 3346 4 5.874807394160096 0.8101296805356628 5.931321191767736 -2 0 -1
1082 1050 4 5.9000355467584935 6.863219908495584 8.50877295634506 1 -1 -2
116 84 4 4.211105499031173 0.3208519019355832 5.6902192553379525 2 0 0
2367 2335 4 0.4288957571182359 7.31369934147329 5.3521053814776005 1 -1 1
2008 1976 4 4.012466034185792 8.64316590831778 0.3863213580722076 2 -2 1
586 554 4 6.337282034668841 0.036624806624153475 2.3673156468511345 1 2 1
727 695 4 7.9890577460620245 2.571549094388556 3.2050089501167354 1 -1 1
2278 2246 4 0.5660042378049703 8.726418059698936 7.504649251361506 0 -1 0
2378 2346 4 8.893187892979878 2.7242049176079823 1.3690383301890405 0 2 1
1113 1081 4 1.6397193972322137 9.67478905716271 3.8324357947099617 1 -1 0
874 842 4 4.7807538068563655 3.034918813368769 5.071927778152447 0 0 0
1441 1409 4 0.7265097414064036 7.894453809462696 9.629173023954904 0 0 0
1350 1318 4 4.695436313827351 6.3372920043340235 6.0465830852242695 1 -1 -2
573 541 4 6.629138488205345 9.260978421231199 6.51455613081645 0 1 0
3287 3255 4 1.7645012999222536 6.452886827817107 2.5550626521789317 1 -1 0
2991 2959 4 4.2813572406309035 2.0536955341134253 7.7790552981612064 1 1 0
2731 2699 4 8.59556618967989 5.383611124599338 2.2217675063502424 -1 1 -1
1641 1609 4 8.458429370773647 4.255295897004838 1.991419516362086 -2 1 1
3258 3226 4 0.7947511840211225 5.266545399555448 6.343366445940675 1 0 0
2918 2886 4 5.622354254219081 5.509296328499207 0.5206154522115551 -2 0 -1
2125 2093 4 0.6295756536856235 0.739449469327839 6.023214273651965 0 0 0
1163 1131 4 9.17176757068627 4.7014390475876 8.000377971677912 2 1 -1
1684 1652 4 7.100408021760701 5.361562072429143 6.9826479810027084 0 1 1
882 850 4 4.461971268305937 0.8561746326471965 4.939360912295942 0 0 0
266 234 4 0.09658637653597993 8.512338046064107 2.374286606718166 0 -3 1
846 814 4 2.5610494324685074 0.3979064127727491 7.238333026355934 -1 2 1
655 623 4 4.1040472591466 1.7713217571612383 2.9508862718882005 1 1 0
2213 2181 4 1.3269160804507345 2.1704855114481627 3.8975751149150706 2 1 2
3017 2985 4 5.1098450442980665 3.0729932894904706 8.007029838827275 -1 3 -1
1445 1413 4 3.266629480867138 4.217715435333679 0.02826668208356864 -1 1 1
2933 2901 4 9.989439122879709 7.6181037727852745 8.952981026686855 0 1 -2
306 274 4 9.240239466438071 7.3925149429541275 5.229954252786113 -1 -1 2
830 798 4 7.900940843006264 4.039499177035117 0.660467552657161 0 3 0
1386 1354 4 7.786739034840127 0.23326503155569434 3.169135753882009 -1 -1 1
2932 2900 4 1.4740803343528952 1.4562120338099787 1.9383063760802037 1 1 2
2404 2372 4 0.4263620344071951 2.1422093503937263 1.4729666986886942 -1 1 2
738 706 4 2.795997705097997 6.555297205188675 3.0644220453798527 0 -1 1
3000 2968 4 8.584279882973515 0.34817442692218903 8.396906541031047 0 0 1
1578 1546 4 8.445543584236974 5.507762285793367 6.274064449048717 -2 0 0
1673 1641 4 6.939080270216647 2.899972825767912 5.918191647800469 2 0 0
1014 982 4 8.208916542302989 7.7616107138975075 2.429162587701229 -2 0 -2
1236 1204 4 9.21952799385735 5.28642802827635 5.974305469567285 0 -2 0
2267 2235 4 4.825975371623226 8.201577004774633 9.09998700346776 -1 0 -1
3142 3110 4 7.312989273551214 8.586758999244829 4.639345807595424 -1 0 0
2219 2187 4 7.081953755564574 5.01826664313846 0.9082308719771758 1 0 1
788 756 4 0.14705961483506386 6.73287323819321 6.394122513944478 1 1 0
932 900 4 3.5367481845821893 2.2030735033728477 7.823567483274941 1 -1 -2
258 226 4 3.854770904118442 4.369853245650102 5.716527146519094 1 -1 0
1897 1865 4 0.09006567506989449 5.983157016293445 8.72973804474349 1 1 0
248 216 4 0.7992317118993456 5.420568863511879 8.98644933465976 0 1 0
2504 2472 4 9.928155916799 6.463182453519092 1.185460510217161 1 -2 0
3148 3116 4 0.5995564141291039 5.185138799897517 5.492996695765729 -1 -2 0
3016 2984 4 1.0382801838273172 1.6863369193389792 1.520706112262082 0 1 0
2214 2182 4 9.021904871565809 2.0722094508615623 2.269875129998314 0 1 0
1031 999 4 4.222506954311739 3.259067475398386 6.483426238317173 -1 2 0
1339 1307 4 7.545223063695457 2.2295773160331342 6.33123378099376 3 0 0
1579 1547 4 2.604863918633177 1.0699656304299907 3.6377724536019582 3 0 -1
867 835 4 1.5791789614229705 0.4429868708404276 1.6985872887964497 1 0 0
2132 2100 4 7.863583731877232 0.8702810671473793 8.725375599994825 2 0 2
2757 2725 4 7.700820637560657 7.409089833168884 1.2227777722925737 0 -1 0
122 90 4 6.518403593188915 6.583908601088329 3.4340189276846766 0 1 1
2512 2480 4 4.940566006306937 9.01545109483484 7.790394004306701 1 -1 1
2672 2640 4 0.5382133989686718 3.290055374590443 5.249944321149009 1 0 -1
1930 1898 4 5.4590258402774925 8.101353890838343 0.9231325965780297 1 0 0
54 22 4 8.054387751766976 4.808221049309518 6.6082113034901795 1 0 0
449 417 4 7.8524390713376615 9.759056170200397 5.466621985957605 -1 -3 0
909 877 4 7.0701126307881195 5.156149810251843 1.7237671637020506 0 1 1
1181 1149 4 6.68881614755611 0.6575008724648066 0.40441628356668746 -2 3 1
394 362 4 0.6356371444375316 6.462900717384515 0.8859797904108415 3 0 0
1885 1853 4 6.669350356174532 4.889356914137302 2.9066376594086405 -1 1 0
941 909 4 3.620850622152528 2.756900707075278 4.59516442452555 -1 0 0
1900 1868 4 9.019195813028015 3.16256584765355 7.733537526387346 -2 1 0
3310 3278 4 5.481625732355831 6.814251252789679 0.8180084456870242 0 -2 -1
2684 2652 4 6.615598312074031 5.673496365118321 2.4734961269648994 -1 0 1
3201 3169 4 1.4471522082223731 6.408054827020784 0.4989186302658226 1 -1 0
1790 1758 4 8.626935387753655 8.747582577396676 2.547715811633533 -2 0 0
1928 1896 4 1.795809002264468 8.471408675506256 4.886446092061159 0 -1 -1
1926 1894 4 7.3098477976371194 5.070348788916263 5.402606375968545 0 0 1
1472 1440 4 9.280793518577875 6.327707466463348 2.0442787757144636 0 0 -1
3051 3019 4 2.5478342894166097 2.3028355115367516 6.789419069984655 0 0 0
927 895 4 6.833067371495253 4.071069154981665 0.47986359239172377 2 0 1
2210 2178 4 9.248725366862336 6.9616685533112825 0.24272384706668737 -1 0 0
2199 2167 4 9.397859749423258 9.7281782784349 7.308870502500878 0 -2 1
3373 3341 4 2.9166998362490535 7.275604441741238 7.184356762353064 -1 -1 1
2121 2089 4 1.6062285654165398 9.329763139887875 8.422307845489293 -3 -1 -2
1370 1338 4 2.6782945421051934 9.611948337958136 9.31719280176618 0 -1 0
1232 1200 4 1.0173607602776191 6.62324237155569 1.1148941203640665 -2 0 0
1771 1739 4 6.362601567928935 4.489351844358962 2.827589582803098 -2 2 0
1934 1902 4 2.8773489062086473 0.8364039213561162 1.9223227059975452 0 1 2
3362 3330 4 1.8736747550928787 8.208803223806576 1.7489990968547589 -2 -1 2
1692 1660 4 5.631077533382087 8.39078985377505 2.825688490874269 2 -1 0
2883 2851 4 0.2659756876790217 7.1819457943366505 6.959908880106724 0 2 0
2818 2786 4 3.738401455277989 7.470494189541373 5.3691553715123295 1 -1 1
1510 1478 4 0.23777676546334037 6.8406553991665975 7.521350099030884 0 0 -1
1214 1182 4 8.746068417219616 6.344844745844641 1.76198417442211 0 -1 -1
2433 2401 4 0.9380016229287969 1.6306850575834817 2.2572198530565535 0 -1 1
2135 2103 4 7.765687705816143 8.510431200388766 2.6285162553321757 0 -2 -1
3312 3280 4 2.4138711228266865 0.5305048215742548 3.514551500935136 1 1 -2
520 488 4 8.960194788639528 0.33412348931455604 3.8341301064850315 1 0 1
1619 1587 4 3.7409839597548165 3.3246092999704655 9.084742931447666 0 1 -1
2216 2184 4 3.6801739540346268 1.287187808148893 7.395931010454138 0 0 0
766 734 4 0.8465104806946635 4.766393447593521 1.8679977296821229 -1 1 0
404 372 4 0.4454425812760459 8.162876089119123 7.7567516249623525 0 -1 0
469 437 4 9.574988342613072 4.029766934065053 8.732054989425214 0 3 0
56 24 4 1.14256666428158 2.9599765769286 2.880272117115237 0 -1 0
3388 3356 4 8.058968855181874 0.7549985402064163 3.865045772264464 1 -1 0
2230 2198 4 0.2336689428677757 6.095734597285982 3.3229590953838084 1 1 1
3359 3327 4 2.8399031396794943 3.9425062733559026 6.585322510006277 2 1 -2
922 890 4 9.096621471586992 6.6429368639446595 5.524689823033109 1 -1 0
2168 2136 4 9.301709776354457 2.87097819457665 7.952206430774674 -1 -2 0
188 156 4 5.516020990287693 5.335167291319328 7.888859255652443 -1 -1 0
1607 1575 4 2.9737761208235556 4.193084833056122 5.939854346532265 2 -1 0
1137 1105 4 2.768083860629453 5.319568484323001 0.46724466831623923 0 0 1
346 314 4 4.499583591466352 9.393004872453734 1.5344746566350909 0 -2 1
2738 2706 4 6.463693801101704 3.4039713831635257 2.8439090219194116 1 0 2
3397 3365 4 4.164231755035684 5.791650209201124 3.5747267641961935 1 -2 1
1612 1580 4 0.8836058322523443 9.44349779819786 9.075452377157355 2 -2 -1
53 21 4 0.3877794132740978 4.401412553982423 1.1201427660601748 0 0 1
1212 1180 4 6.7573501321861 1.1859776030462097 7.092842549812501 0 1 -1
1720 1688 4 7.3685843770556 3.152035219556001 5.505008220487204 0 0 1
845 813 4 4.249184264494393 7.3531399084413325 5.875960872068608 2 0 0
740 708 4 6.32278776479632 6.031266842822138 0.36425576221959677 2 0 3
2662 2630 4 0.685191428517105 8.264093150193561 8.818032762630544 0 -1 1
2112 2080 4 0.684035619789907 8.889813026372668 0.5065399933775551 1 -1 0
405 373 4 8.385510108328097 4.134641653575166 3.5088347194498946 -2 0 -1
229 197 4 7.508447732151046 9.782997292765476 3.8800536063831634 0 0 0
177 145 4 7.560022729378538 5.300371224687453 1.16876218845404 1 0 0
1190 1158 4 6.397807558687538 8.893835978868475 8.969378878059983 -1 0 -1
1500 1468 4 1.9438700667280104 5.40046964591312 9.736222977377585 0 -1 -1
1742 1710 4 0.8857772700977707 4.5384106092653935 3.715897152576633 0 -1 -2
1362 1330 4 3.856073094536702 9.221872232104234 2.712375393496195 0 -2 -1
2495 2463 4 7.398118837141062 5.237812570608861 3.7415343841664406 0 1 -1
769 737 4 1.0086414565854733 3.4542551528602377 1.4471943979093675 0 -1 1
3307 3275 4 5.466913596893393 4.719472335572126 3.8252967920460375 1 0 -1
1568 1536 4 6.0444163615596915 0.5307525360310722 7.318719978784518 0 -1 0
739 707 4 7.943730392476952 8.715524353091393 9.489968803704974 0 -1 1
2211 2179 4 0.9201956309515197 3.2175257448765566 6.779990662532082 1 1 0
1738 1706 4 0.7339395093468264 2.525732907329181 1.968492462542565 1 0 1
94 62 4 8.623383608799701 5.836990677476659 1.0810543850077956 -1 0 0
2490 2458 4 5.226183485429151 7.215748865806057 9.364996107595426 0 1 1
1366 1334 4 4.050524648812423 1.7237006425986254 7.204787717173352 -2 0 -2
2318 2286 4 1.7094440090910998 2.096903311870088 0.5231874884871355 2 -2 1
1310 1278 4 3.458758815449891 4.364309162198545 8.948523707701709 2 1 0
262 230 4 1.130094682678378 4.415617985447296 0.676939689135016 1 1 1
51 19 4 9.53041219426886 0.7722887102054732 7.810133639588181 -1 1 -1
3294 3262 4 4.018962574727131 6.286100146464875 7.653027457290381 0 0 0
1397 1365 4 3.264942224881606 1.2014874726594247 6.130617100462942 1 2 0
686 654 4 6.3912724884323024 2.829926441783093 7.2668262658370955 -2 1 1
792 760 4 4.846628990569042 0.13192804607744132 1.1634367553379994 2 2 3
2915 2883 4 9.973499301833547 6.924502646823408 4.205925607785845 1 0 -1
3099 3067 4 7.582493634509315 0.006730811821787635 8.829002688228261 -2 2 0
2032 2000 4 9.430272574846434 3.139395878121294 3.5248100628613748 -1 0 0
2995 2963 4 6.897262129519069 0.2793886553163675 6.824448758464394 -2 2 -1
2555 2523 4 3.9675585016703865 9.930827334541219 9.374622579703544 1 0 -2
1589 1557 4 0.12071663228155428 7.942318050822861 4.4609858930638016 -1 -1 -1
2606 2574 4 9.564364570124667 0.026301048650821387 9.305159038352276 0 2 -2
236 204 4 2.8274297417042447 1.1749326630685402 7.645981371744435 -2 0 -1
321 289 4 1.1245418909133238 1.2951068555610632 9.653159415445144 0 0 0
2298 2266 4 2.2926981497255703 1.8053416332706687 9.185657630772784 -1 -1 -2
1348 1316 4 7.461377434421023 4.354913341612907 8.287554404692814 -1 0 0
2442 2410 4 5.347464245830165 8.080526149540956 1.7155183460692178 0 -1 0
2073 2041 4 4.374585124821536 7.588491451580788 6.055594748081183 -1 0 1
2424 2392 4 6.072040205617359 6.308004467117166 8.85753006172875 -1 0 1
1188 1156 4 6.389391477431021 1.0315494636451614 0.23952732501067453 -2 1 -1
2663 2631 4 9.693062115525263 0.8288776887163037 2.6756380050399673 0 0 2
3238 3206 4 3.081254595289173 3.6617387805845274 8.432095543279067 -1 1 0
2952 2920 4 5.805645474313584 5.125995250802473 5.983654323336827 0 0 1
392 360 4 4.817038525851981 4.904144577378247 2.296243798006747 3 0 0
3341 3309 4 9.919521648289088 9.685291483364555 8.064879252088954 0 0 -1
2707 2675 4 7.334029434634492 6.613150750781611 4.9408068748347596 -1 0 1
412 380 4 1.2812579773677708 5.151568262191342 3.346441313398907 -1 -1 0
2644 2612 4 3.0156823065762257 0.5929085682208491 0.4797443624677572 3 1 0
2182 2150 4 9.073606964711438 6.495887216053464 2.497171802611277 0 1 0
2395 2363 4 5.757499174989808 5.340282558770586 1.017470755319122 -3 -2 1
1694 1662 4 0.0978363006369342 7.516891422243874 4.040412186627631 1 -2 0
1699 1667 4 1.4219881997111883 2.2032458531481 1.9335263805414482 0 1 1
490 458 4 3.0258896684698167 7.944335898111558 5.457064516957867 1 2 0