LAMMPS data file via write_data, version 29 Oct 2020, timestep = 3500

3415 atoms
5 atom types
47 bonds
7 bond types

0.0 10.0 xlo xhi
0.0 10.0 ylo yhi
0.0 10.0 zlo zhi

Masses

1 1
2 1
3 1
4 1
5 1

Pair Coeffs # dpd

1 25 1
2 25 1
3 25 1
4 25 1
5 25 1

Bond Coeffs # harmonic

1 4 1
2 4 1
3 4 1
4 4 1
5 4 1
6 4 1
7 4 1

Atoms # bond

260 228 4 0.5513597427108675 5.73024169431711 4.920517964244347 1 1 0
384 352 4 5.735690907614545 4.221739195517425 9.881689063306586 0 2 1
1247 1215 4 7.667562102000066 9.375949938147988 1.1883357379044175 -2 1 1
1382 1350 4 3.229846515466684 6.060548740378246 1.7826355622899694 0 0 1
731 699 4 6.267624238540306 6.744768375132032 0.1465128053006358 1 -2 1
861 829 4 3.1631797314785888 6.745825898669512 7.239908002493953 1 -1 0
2393 2361 4 1.739173431536103 5.186295037074313 7.5180368984858585 0 -1 0
1125 1093 4 0.0204732351778633 6.349435485327759 7.504344261019778 1 0 0
1893 1861 4 2.7438225023137464 7.338395120617441 0.020842632891040935 -1 0 0
2105 2073 4 6.2890180142472305 9.406910937340411 9.421933703187092 -1 0 -1
2303 2271 4 5.650603910609348 6.4300988868499465 3.586063273340147 -1 -1 0
2342 2310 4 7.634426113434082 3.072510220227592 6.367133057450592 -1 0 0
2588 2556 4 5.60506350565009 5.1009867489490555 8.961561282844205 1 2 1
818 786 4 3.060331071288186 5.3237158619469485 4.517655872062237 1 0 -1
2876 2844 4 7.221352410627918 6.572397811391899 4.107644539849637 -1 0 0
3394 3362 4 9.101839698969359 5.874845453030659 9.478359436858673 0 0 -1
3309 3277 4 2.55668297856366 7.274715783066708 7.713637932547516 0 0 0
1614 1582 4 0.727568031390487 6.521103778748967 0.8353236869753301 1 0 -2
2853 2821 4 3.699702711866949 1.3838625893725036 5.673761151582251 -1 0 0
2473 2441 4 9.830643416741035 8.596772031420583 2.8983608402576766 0 0 2
2252 2220 4 6.557071376801274 7.126343164052646 2.8428824331424236 2 0 -1
856 824 4 6.88287288568643 5.682007442608665 2.5554405495787273 0 -1 1
3155 3123 4 7.013553327901208 7.274666361564824 9.75265363253217 -1 -2 0
2300 2268 4 0.5731901652908505 8.864215200908683 6.054372581791737 -1 0 -1
965 933 4 6.927276883921522 1.6878899514217234 8.487587139811735 1 1 -1
476 444 4 0.3208127193250114 4.434032007912045 3.3413229947714136 0 2 0
3229 3197 4 1.6935793160407895 9.187835147572738 1.3690682405454575 2 -1 1
837 805 4 1.6010970265102904 0.7865369445257762 6.623562461086963 0 3 -2
1298 1266 4 9.047878196402706 9.353099896513347 7.1120515819078305 1 -1 0
1977 1945 4 1.0280840645047762 4.632932292815407 4.6923514337620595 -1 2 1
2821 2789 4 1.156213688286298 8.482520173797747 7.105103926607049 1 -2 0
2000 1968 4 9.372818349657322 3.6828707668271963 7.889729404976998 -1 0 0
337 305 4 4.89922344912058 4.616456423826989 2.2580479187764917 1 0 -1
3192 3160 4 5.104157096695029 0.001296602836172432 3.33730439684321 2 0 0
643 611 4 7.26286086939773 0.8605030409266966 2.728033486075544 -1 0 -2
1790 1758 4 0.4070829201456685 0.5857483548617831 1.9691212454518099 2 1 2
2215 2183 4 6.4432338910981946 2.886360105023412 7.494348616867772 0 0 -1
461 429 4 7.469218127635385 0.7549904535421571 3.6566014424439093 1 0 0
3316 3284 4 4.136352855185665 0.544083206387344 9.49963423718825 0 0 1
1062 1030 4 4.0689123600556325 5.836608175559541 9.536359681130653 1 -2 -2
1016 984 4 8.075852979754382 0.5642269576652175 7.28028007871514 -1 2 0
591 559 4 8.190307740936165 6.631184463952774 3.8398579915889077 -2 -1 -1
2630 2598 4 8.21764307236132 0.5979132881551543 8.353532721157622 -2 -1 1
2535 2503 4 0.6655979107387276 9.58141860210263 5.334754750004133 0 -3 0
2800 2768 4 8.824654829812722 5.282280190911192 7.783742153190828 -1 0 -1
2487 2455 4 8.11713638474299 1.7014822457021774 3.053828899386311 0 2 1
1658 1626 4 4.971852770160387 2.9409871097566844 9.44749043505559 2 1 1
2677 2645 4 4.5499987594946205 6.953944529657911 2.38787845065489 -1 -1 2
1005 973 4 5.703827498891827 7.280015568766298 6.109850170158451 0 -1 1
1042 1010 4 9.464041755291367 5.320680368081188 9.515492421481206 1 0 -2
708 676 4 6.618023821070431 8.717486047218546 9.682653609310762 0 -1 1
832 800 4 1.4143285361317997 5.1404234714702834 5.169478942307784 -3 -1 -1
868 836 4 1.390819649967149 6.699433705414477 9.704560147227559 -1 0 -1
1717 1685 4 3.9993717752832976 6.23325572544619 1.6476008553676325 1 0 0
862 830 4 5.740700108144183 8.181410176631378 3.1788854371953423 -2 1 -1
2161 2129 4 2.573950882810368 4.040913167993376 7.125008496566226 2 -1 1
2501 2469 4 5.753158254765571 2.7351396138664312 0.5150962558553408 0 1 2
1450 1418 4 7.409960577052004 6.579114087682575 8.344959698359812 -2 -3 0
133 101 4 1.196578651912729 7.329798285195611 9.887275196130824 -1 1 2
1182 1150 4 2.035858525824291 8.912687228934393 5.585066541805563 1 1 0
797 765 4 3.795596449962107 2.059672705910122 8.878650419893615 -1 1 -1
2178 2146 4 9.817467618626598 3.42975192209365 5.690635678791111 1 0 -2
2075 2043 4 5.829499150550686 2.0485591592378607 4.13861890312932 -1 1 -1
3215 3183 4 8.888546095979741 6.628386498981655 3.111894896032465 0 1 -1
1678 1646 4 0.846663992767885 8.916078912786983 5.0458187908996095 0 1 0
859 827 4 0.4484075045712511 2.6717189922293003 0.7003259035257885 1 0 -1
301 269 4 0.5670101835483903 3.6644205417272167 8.59593696558908 0 -1 1
2406 2374 4 2.732200156148484 0.6570720099946146 2.32981467351008 -2 1 0
416 384 4 6.180864035038627 8.760807605056469 5.903597796068798 0 -1 -1
1945 1913 4 2.374817471778552 2.697352639586709 7.609655497567934 1 -1 0
3099 3067 4 3.1451687443968535 4.173787889528659 8.799898261887437 1 1 -3
195 163 4 0.42216264131281395 7.207644864583103 4.804257798509571 2 -1 -1
1466 1434 4 8.474919312734777 3.1605978108112285 7.4015469258818385 -1 -2 -1
2657 2625 4 0.9934521332045263 6.509202141437322 9.887546468111491 0 0 -2
1808 1776 4 9.404200486204939 4.952858408385174 9.53373404353276 -2 0 -1
1074 1042 4 1.9750650203817643 3.520937667255702 2.1900015881346038 0 0 -1
1842 1810 4 7.718996213985095 2.334495677768688 1.846243581804536 2 1 -1
3300 3268 4 0.34473672434927205 7.379309345049222 6.108920536708907 0 0 2
2259 2227 4 0.7314099910094564 1.3658978435336195 3.3737472717774457 1 0 1
2619 2587 4 1.9028756718817648 3.0679652368542505 7.320575715371657 1 0 -1
1395 1363 4 7.968852929068676 7.4616055525987885 6.811137507712959 0 -2 0
3135 3103 4 7.6349748412700205 5.9775769044377824 2.5170323632514022 -1 0 0
2352 2320 4 0.5719080051850813 4.9305179168635584 5.903776696102043 0 0 -1
2529 2497 4 7.803707542082727 4.025521255163993 9.197518409285223 1 0 -1
446 414 4 2.6925921803338797 5.316408962949612 7.8636025087126145 1 0 0
2841 2809 4 1.4915736033477802 9.238336569467872 8.667766339342018 1 0 0
2520 2488 4 9.47686116509318 9.859644738275456 3.244510978242601 0 -2 1
3406 3374 4 3.736519997126679 3.210161900793859 7.977042965740709 -3 -1 0
631 599 4 6.860481847290676 6.605025454435211 0.13327247350353372 -1 -2 -1
3396 3364 4 5.724241344462085 6.992618122987926 3.4347601974607693 -1 0 -1
3385 3353 4 7.563884215211806 7.429131242535967 1.713398762015982 0 -1 1
1149 1117 4 4.804847214500844 8.879859713164837 4.849718098994216 0 -1 0
3332 3300 4 4.8359648248780465 5.462257366588635 9.409072516358757 -1 0 3
1819 1787 4 8.360457761535443 0.6129819368058085 1.5983823882062738 1 1 1
1708 1676 4 1.6725501694200016 8.572417343543169 0.6011283730186625 1 -1 2
2690 2658 4 8.968592044978632 0.4750138824088533 6.864256744719524 -1 2 0
3220 3188 4 5.030963775516238 1.7613857042697179 2.540003289511594 -1 -1 0
343 311 4 0.11733482307467384 4.6524240545965165 6.84110090750868 1 1 0
3223 3191 4 2.425304506491856 4.604178926397661 5.98321132735445 2 0 -1
1858 1826 4 2.2747129737103293 9.440162015321723 2.4072263232731625 0 1 1
2174 2142 4 5.787823161253941 6.240425833965946 0.012471814775595898 -2 0 1
1013 981 4 1.9200669146814173 9.790499172939093 5.909099349312822 0 -2 -2
1328 1296 4 6.118399523832047 7.608040353214421 1.8631279509793013 0 2 0
2408 2376 4 9.92131647177945 4.385571638052872 5.225770094880762 2 1 -1
1622 1590 4 8.126376423466224 1.6315110734768619 6.210097507373774 0 -1 -2
2521 2489 4 7.193226801647823 8.116507392578438 3.63388611052235 1 1 0
1472 1440 4 1.855122549293298 8.487096747852966 2.4018992781144832 -1 -1 0
3407 3375 4 7.448053945698248 0.031170904212723727 4.404088697084202 -1 1 0
1084 1052 4 9.831897414197105 9.786306859458698 9.566319851331176 -1 -1 1
800 768 4 3.9892519504851194 1.9766184658368209 9.481025008050823 3 -1 0
1081 1049 4 6.2561603006148365 1.0253460586910337 1.0733429744151792 0 -1 -1
3100 3068 4 9.621533806605038 3.2014128260736125 9.57732315798083 -2 0 0
1968 1936 4 4.928266717076281 1.823999479826743 3.43916429200506 0 3 1
2913 2881 4 5.065405781583278 1.1332606344297083 0.3325359054098623 1 -2 2
2141 2109 4 7.462010019522473 6.061197387335014 3.2966619401190833 -1 -1 -1
1052 1020 4 7.494306988763892 8.29233715236336 1.5978591918387897 1 -1 0
171 139 4 6.492972520080972 3.42606357135951 6.778210475119733 2 -2 0
191 159 4 7.851317172354719 3.7363284837999142 2.364524358352683 0 -1 -1
82 50 4 9.206331610397882 4.586962882323339 5.658182506981376 -1 -2 0
1113 1081 4 7.162487871166763 9.652950444875184 5.149236702209751 1 0 2
2545 2513 4 0.22942953907572483 1.56140844146585 0.36510895571962587 0 0 1
3345 3313 4 2.6264016664580168 6.427184643791989 0.282230601206057 0 -1 0
152 120 4 5.603988136980205 9.618066637413573 8.986648725177792 0 0 -1
1322 1290 4 5.140509310757447 0.9057956176355207 3.1708588128146644 1 0 2
2571 2539 4 1.399198933127766 7.9181115215413 0.7362748412156724 0 0 2
2836 2804 4 9.441101838871491 2.5513902594290157 7.802678736481813 -2 -1 -3
1276 1244 4 3.574844092767378 6.877071961178 1.1045436279705316 0 1 1
511 479 4 5.921919180236297 3.1733228231217154 7.696448443459213 -1 0 0
991 959 4 3.348234889104339 9.48193973056059 9.199421351243396 0 1 -2
2662 2630 4 7.399115006794291 3.3582773662224636 2.4338131648672428 0 -1 0
849 817 4 1.63595118197008 1.9901627240545139 5.139898578173186 -1 0 0
226 194 4 0.32903788470160583 9.867971718698778 0.28783776204002565 1 -1 -1
853 821 4 0.5943542627277076 0.2286503777635786 1.2799835143374498 -1 0 2
2827 2795 4 4.924782170404603 9.105680405219784 8.136327103333471 2 -1 0
2294 2262 4 4.205934656315107 6.995318409097212 1.2183258223624955 0 0 2
1843 1811 4 5.703628326594146 5.367552132698894 9.606730953206375 0 -1 0
460 428 4 7.618163931855316 3.587053599372802 7.244475771039292 -2 1 0
931 899 4 4.325967604915497 2.6754396653038524 7.523112517447382 0 1 -3
1458 1426 4 3.648522182072093 1.4823127825431428 9.922538269572536 -2 -2 -1
1456 1424 4 5.909897874848539 4.47464638059959 1.454256858709285 -1 0 1
730 698 4 0.47981333551243377 2.895264860935977 4.997925474374455 -1 1 -1
2671 2639 4 1.9067909523401567 3.422814878021523 3.7760115603982847 2 -1 -1
2610 2578 4 6.484602335466272 9.59845043596105 2.2469691246682935 0 1 1
1593 1561 4 9.096675529213934 6.376713062418662 5.860119623146907 -2 1 0
3140 3108 4 3.6881322399844785 8.98165219174528 7.498009315346335 0 -1 -1
1015 983 4 1.804354514484225 5.666479608979022 8.694028945897413 -1 -1 -1
1140 1108 4 1.6030980263350396 0.6100247990601858 9.465447560507503 2 0 0
1164 1132 4 9.504552796237574 8.95037181348629 0.5529546700100527 0 -1 0
3077 3045 4 3.477027530544298 7.912281287226641 7.779585460557789 0 -1 0
1690 1658 4 8.910977144420519 7.267604860806919 1.144190373369251 -1 -1 1
2325 2293 4 1.2514060566490361 3.1324958169010166 1.792037145473204 -1 -1 2
1413 1381 4 8.822291842659116 0.936566008483849 8.629968764155926 0 -1 1
926 894 4 3.23233779295516 7.630514838183289 7.54575261074517 0 -3 -1
1152 1120 4 3.141362083361714 2.246697342129838 5.86109479549015 -2 1 1
334 302 4 0.658173730018065 8.0648113321776 6.505173358810819 -1 0 0
2596 2564 4 0.34830136074752244 2.2378768692432054 8.144520245550114 1 -3 1
424 392 4 4.204512790881852 1.6145679688660812 8.663981077610755 -1 -2 0
2324 2292 4 7.092118907021726 1.845570627553196 8.201343444177324 -1 1 1
2806 2774 4 5.236879793391951 7.624765062818732 0.566017541247439 -3 -1 3
3211 3179 4 9.591512041154935 4.849570655566038 5.2506880991781495 -1 0 -1
227 195 4 3.8672151624360893 3.4729753443333 4.788626296961806 1 0 1
677 645 4 0.24243035988242223 6.969919668373386 2.2382618408635033 -1 0 0
2583 2551 4 8.27689945865851 0.5812320650863809 2.4685438150372403 -1 1 1
2697 2665 4 9.591898106758425 9.403599856048475 6.754677121796212 -1 0 0
1333 1301 4 2.145616804441134 1.24214990817769 2.3008879609005466 1 -1 1
573 541 4 9.004489946997367 9.84490114344971 6.488063622957079 0 -2 0
2724 2692 4 6.856696935858251 2.830545108219134 6.474173363098784 0 -2 0
2060 2028 4 5.583553301767128 6.763368523663922 9.697017640694163 1 -1 0
129 97 4 8.470746552407952 9.042203949002149 2.434493404103015 0 1 -1
1932 1900 4 1.21272587991952 8.921711742611368 8.015688216334077 2 2 -2
1947 1915 4 2.194234036949804 8.6281306845151 9.847803140397458 0 1 0
2486 2454 4 9.343461497285592 3.273399482313749 3.5482324307866193 0 0 0
2211 2179 4 4.684848895777463 2.308212947506464 4.204465133581721 2 0 -3
453 421 4 1.2080814090533343 8.256779340034907 2.716297223334287 0 -1 0
202 170 4 5.8833543417470056 5.733930629497695 7.413380107663993 -1 -1 0
2227 2195 4 2.9488018919295027 4.6357031679527765 3.986621224110686 1 0 2
3283 3251 4 4.625546085205724 5.134875190343963 3.1400589867903945 1 1 1
2329 2297 4 5.1009478916602395 6.688224920822787 3.68034366392615 1 0 0
2791 2759 4 0.9666719948494796 6.017825283860387 8.62779267009861 0 0 -3
2772 2740 4 7.245548836088173 9.715074165939729 2.9728776967676227 0 -2 0
313 281 4 5.96884555099276 9.22938753395616 2.0260115234015115 -1 0 0
3370 3338 4 3.54294108367684 2.838577043768101 7.730003724789952 -1 -2 -3
1532 1500 4 4.747876337232825 0.32609265410885657 4.386531325871639 1 1 1
2483 2451 4 1.6641726280638054 4.302748869351407 7.32104409482769 0 1 -1
2163 2131 4 2.1562325152699158 7.953159797204238 2.060497069444077 -1 -1 1
966 934 4 3.791865321124222 3.3446459003802937 6.780635995134181 -1 0 1
2113 2081 4 7.175720969245719 1.6106775009543473 2.6810184068134446 -2 2 1
371 339 4 9.642217653035106 0.5691457643133168 5.762337896032735 -1 -1 0
3353 3321 4 1.370200877623722 7.5335258045913545 9.41127733895769 -1 -2 1
1367 1335 4 5.169563144041428 6.041602518446406 3.5563504324875614 1 -1 1
924 892 4 4.88556460948173 9.267312838105685 2.4227836456969416 0 0 0
1822 1790 4 0.36209680624365115 6.262417995214431 2.731395453049315 1 0 0
91 59 4 2.0901539941319447 0.23196185273513403 8.675181780899806 0 1 0
2925 2893 4 0.54775222977509 2.3325969338641976 9.196180757314796 0 0 1
3398 3366 4 6.032119269191097 5.096202470109233 0.10206130914853243 -1 1 1
3402 3370 4 1.6595426777643572 0.4879445996759809 8.187740937570506 2 3 -1
3118 3086 4 2.259236551281727 3.034484454496943 4.656279909442854 0 -2 1
3008 2976 4 9.71679837308928 9.000821676165632 2.6412583113248034 0 1 1
2391 2359 4 4.835310797092859 6.323865745519968 0.4409939986211442 0 2 0
1035 1003 4 9.544952848059816 3.507146581742742 8.574893672486132 0 1 -1
2419 2387 4 9.686859822166785 8.379209088412093 9.376691326740026 3 1 -1
1237 1205 4 0.27792873011134706 4.838129738518965 8.80500847009558 0 0 -1
1978 1946 4 1.128722663513692 0.35006462720667353 4.199711067396971 1 -1 0
200 168 4 9.657193177782172 4.414894571202442 3.0273424731902834 0 1 1
663 631 4 6.495837115619791 1.8950432840216036 1.1170309606220998 2 -1 -1
1428 1396 4 5.350086463202232 6.984832325979237 8.202596209825666 -1 0 -1
1497 1465 4 8.870192582898277 6.779421152958142 9.700732016434424 -2 0 -1
1078 1046 4 7.912572500704587 8.917322712463756 2.9662900272003876 0 -1 -1
3364 3332 4 1.1854850463147855 8.296200027581357 1.1298949163237246 0 0 1
579 547 4 1.709221189360873 4.382904749742436 6.420285838863982 0 -1 0
2490 2458 4 1.2221708924620738 3.037511973074243 9.210843051258273 2 1 1
2192 2160 4 8.180951714644204 3.418926633556128 9.756599348456257 0 -1 -2
2133 2101 4 7.939519903438285 2.8402952273226854 2.5720642097500286 -1 2 2
241 209 4 9.108166517708495 1.5694795338913774 4.495096044564114 -1 1 0
2439 2407 4 6.327360332316759 2.6764425683765043 9.82549248858716 0 1 -1
2818 2786 4 2.358668526663789 7.194829055682353 9.10356801239807 1 -1 -1
2942 2910 4 1.822898254621957 8.84347853488672 0.14307473217302427 0 -1 3
444 412 4 8.9208986764837 6.787582556314059 2.358926132737651 1 1 -1
1063 1031 4 7.946532481933093 6.461349689234631 6.70756947411474 2 -1 -3
1540 1508 4 6.17681509133446 3.948795216235416 8.418544960329358 0 0 0
2264 2232 4 7.813840990228706 2.1140059324559304 6.903374677143186 0 1 0
750 718 4 9.543913322299684 1.9269609305152273 1.4436315588539685 1 2 1
215 183 4 9.441820717217887 1.7459588076014847 5.7723031756325085 1 -2 1
159 127 4 0.6889616191987039 3.5381484955415017 5.902682042228591 0 2 -1
1654 1622 4 5.390760712826006 1.3802894125070428 7.162510449355626 1 0 1
1157 1125 4 9.190006064701695 0.3403446444850427 0.9392565727561408 0 1 0
2033 2001 4 3.3313232848909355 5.690668833901324 9.767177590580577 2 1 0
3245 3213 4 0.8692166500775821 4.360220867345959 9.00093991933608 0 0 -3
2250 2218 4 1.8152882099867917 2.202153690880326 0.32280225759056913 0 -1 0
3028 2996 4 6.9619205147410295 4.320599476696552 5.175399406463203 -1 -1 0
634 602 4 4.5533361481754255 3.963101180302142 5.01571215483353 0 1 1
3007 2975 4 2.7725062212379297 2.9110903801029173 8.548325081978724 0 1 2
887 855 4 0.3033267117415621 1.4852565075237334 8.372225152083912 1 1 0
2793 2761 4 0.16225525599136909 4.5228520644809365 0.5513077072713404 0 -1 1
1935 1903 4 7.553181263319019 8.748152494557461 2.0233459331774117 -1 -2 1
2146 2114 4 2.1153444173238034 5.486502672525039 0.5575245303967292 0 0 1
3148 3116 4 4.88964501236782 2.136986047382718 1.309937168009633 -1 1 0
1503 1471 4 4.950333712290571 4.513722525957257 6.58767873514328 -1 -1 1
3321 3289 4 9.504395592203899 1.1438462403528395 9.084343622124436 -1 1 0
709 677 4 3.2022912161741277 4.843843425046096 6.355491927611087 0 0 1
2552 2520 4 1.2897416718407841 7.6887731984376915 3.183663773235193 -1 1 0
490 458 4 5.665801775509398 6.795032955961531 1.9188275634318843 0 -1 1
913 881 4 7.682502150998678 0.7240321765460278 2.6987798480827156 2 2 -2
2135 2103 4 1.5310570151032172 4.12629527416702 6.73840577111806 3 2 -1
1043 1011 4 2.683255719922002 1.6543888387712227 3.42839977197242 0 -1 0
1785 1753 4 8.6472508738484 9.172382378558556 5.339552263179847 1 1 1
684 652 4 9.930801192928133 7.86091502740436 3.286719736017011 -2 0 0
3366 3334 4 9.28341050831008 2.123454050618448 9.480058803761905 1 -1 -2
2691 2659 4 2.366711107407221 4.063861708916367 8.669380175592595 1 1 -2
1290 1258 4 4.5122675109761365 9.979617316098672 4.005966181508478 1 -1 0
3352 3320 4 6.222051198276777 9.850487854743323 7.099304800994538 2 -2 1
2663 2631 4 2.7508540016114216 8.649923889623244 1.0595790100426636 2 -1 3
653 621 4 2.4613100766374516 9.964836114294485 6.560560655028085 1 -1 1
2866 2834 4 1.5620140872471884 2.1083228604477884 8.53935062288142 2 1 -1
3403 3371 4 3.6301558143066237 3.5447421784680184 0.5924905057570481 1 -1 0
2966 2934 4 0.7365532086007711 8.150144028568644 3.292187704765353 0 1 0
1721 1689 4 1.1846550867825771 2.7656727643167063 4.562678462540394 2 0 1
1040 1008 4 0.9292060989154723 6.107001914365834 2.00170884718211 2 1 1
3225 3193 4 2.7726567199002576 7.66975201143103 2.736728298033657 2 2 0
3157 3125 4 5.587331046184615 9.031141037949062 0.39472412251406713 -1 0 0
254 222 4 1.990842316403318 0.585763110059768 7.73204451257414 -1 1 -2
2224 2192 4 3.6148008629264714 6.697513819433103 8.39242357562847 0 0 0
2311 2279 4 9.306399455872144 0.061012944482330786 4.945760951997133 -2 0 0
1763 1731 4 3.424956426745788 7.5560606075916334 6.431330417797589 2 -1 1
153 121 4 3.2452000388044575 0.45103349772149265 7.914990404078349 1 1 0
2138 2106 4 4.867122224948192 2.257846432017705 3.146648045546914 2 -2 0
1820 1788 4 1.057054313292094 7.561346091739284 7.253165281624986 1 0 -1
566 534 4 3.3331565323782284 5.798581191456283 7.277214686804424 -1 0 1
2894 2862 4 5.563620629552575 7.554289031044406 5.250808647020781 -1 0 -1
1500 1468 4 4.173809349305158 4.1688446489009365 8.115377930610071 1 0 0
1287 1255 4 7.9042862893988 6.133674589835736 0.010528632602424537 0 2 0
1657 1625 4 4.802672125736407 1.5533995345962668 6.7000693281281665 -1 2 0
1324 1292 4 0.09911527300494855 1.9151081809731043 3.8452672898206726 1 3 1
2332 2300 4 6.9245620292405405 7.423828747734484 4.034628242334886 -1 -1 1
1280 1248 4 8.727938462153432 8.352352704313617 4.324567216300239 0 0 1
1928 1896 4 7.116398136646208 2.0295623561488387 2.369173009067873 -2 -1 1
410 378 4 4.850324857986611 2.9303508255536688 7.69857060504177 0 0 0
2006 1974 4 5.539958136334547 4.337298903900119 3.5147025709717297 3 1 0
1425 1393 4 8.560296931470337 9.625272324247305 0.8431020764058152 0 -2 0
2637 2605 4 6.481794664790368 7.969329729923251 1.2337920035589018 0 0 0
635 603 4 9.978582790195999 2.1189710529449206 9.242682061825079 0 0 0
673 641 4 8.006889689509777 3.1361993467579823 9.604959579963088 0 1 -2
2423 2391 4 8.09351294746737 8.282804433398187 7.835189064120611 0 0 -2
2878 2846 4 1.3048202629240313 3.6660337939253873 0.6842909829382957 0 1 1
3232 3200 4 4.425281953668541 0.8278150109337187 2.049887385477804 -1 2 2
977 945 4 0.06292452855063146 4.483495403076276 6.817215111821417 -1 -1 0
1559 1527 4 1.7651626241149643 0.1425963878976702 2.819744627307058 0 0 0
637 605 4 0.021053572008731408 2.342256786144541 1.1016758613416266 1 1 1
2670 2638 4 0.45987478141296434 5.056114674162086 0.28070771764322305 0 -1 0
1232 1200 4 6.932018408382181 8.799745230167272 0.5706342774601505 0 -3 0
540 508 4 6.034439415303507 1.935819700346748 0.3539985766219982 0 3 -1
1348 1316 4 0.962163385881662 5.7850530028434815 7.842764464479697 -1 1 -1
3121 3089 4 0.14516571778902346 7.994776815267792 0.022547726151190977 0 0 3
2865 2833 4 6.208569597364529 5.591359167273666 8.012937696460162 0 1 -2
1351 1319 4 3.3539052599237995 6.65688749954484 2.269423928688903 3 1 -1
2234 2202 4 8.875059663601528 2.0344057233796216 8.208295468810151 -1 -1 1
3236 3204 4 3.399410253104785 0.5534330760511236 1.383010620207321 1 1 -1
1520 1488 4 0.1510908182900676 8.754877889798456 8.129942698400844 0 0 -1
568 536 4 6.731755444593658 8.105339150397397 2.8974711049709128 -2 0 1
1192 1160 4 6.240266307632973 4.165640884522399 7.72782343477246 1 1 0
286 254 4 5.050120330734178 3.49449626054181 6.513210964112687 -1 1 -2
2514 2482 4 0.3418814342096745 9.145211222116789 2.441329080753542 1 2 1
2379 2347 4 8.503077051670898 0.44689804488609564 9.28989047123969 1 1 -1
2188 2156 4 3.1848467233640703 3.357195525385836 9.79997776730905 -1 -2 -2
248 216 4 7.973230745061825 4.486290948459483 4.512692230994221 0 0 1
2837 2805 4 0.14324402144655016 7.881012538485252 3.7352002006518132 0 -1 -1
3371 3339 4 8.061481213838544 2.7841238168035916 5.254095133600487 -1 1 0
92 60 4 7.736485640977752 2.653342457257907 6.20001581942874 0 0 -1
2725 2693 4 5.320651206646514 1.3025335164829916 9.168407610309817 1 1 -2
3174 3142 4 4.641312213888539 6.5767963428414316 6.011221720886354 0 1 1
2917 2885 4 5.436078128993545 9.67434879526311 6.654458153804408 0 -1 0
2733 2701 4 7.834135887628184 8.074100421648085 1.1172832904849073 0 -2 0
3146 3114 4 7.140799098436957 2.370351353710115 6.527231875705135 -1 -2 1
905 873 4 0.07576761550476437 4.1636585642073225 5.4451027543266 0 1 0
815 783 4 5.535221454198891 2.7451091869388353 6.5502239553956025 0 1 -2
1961 1929 4 8.08086355392007 1.6820455004336539 9.838783367015784 -1 0 -1
451 419 4 1.8453033594580488 4.038485329955466 2.2193397757486206 1 0 0
713 681 4 8.529807835615678 2.3400854729775387 2.206796290329692 -1 1 -2
2679 2647 4 5.406492674685032 7.647068729127738 2.8587089928585243 1 0 1
2356 2324 4 7.565437987602952 1.705897156179296 4.911634611462389 -1 0 -1
3069 3037 4 3.4142673754910464 2.5307594466809418 6.518188626707848 1 0 0
321 289 4 4.127830742994533 5.029480125080624 3.9513546145991634 0 1 1
1105 1073 4 3.0133607308113945 4.555043240706608 9.770023612273448 0 0 1
1173 1141 4 4.748371378004471 1.1485192490142506 6.125142014158119 1 1 2
1923 1891 4 1.3509088809381307 4.493253127019074 0.22245607317727675 0 -2 1
2230 2198 4 0.7908076457128791 3.082229360259846 5.444879222332645 1 0 0
1900 1868 4 1.3364131862920348 6.9893375751388085 9.03240686440797 -2 -1 -2
2169 2137 4 6.192270232549512 6.870858606143153 9.314501506728986 1 -2 -2
3132 3100 4 2.1556377362406423 0.4690562803058189 2.725525743851304 1 -1 -1
3209 3177 4 8.553635427776575 7.167166419029082 9.042899287312363 1 0 0
1091 1059 4 6.445363485154802 2.6892160249901456 0.776521420792476 0 1 3
1880 1848 4 9.791275367789208 5.313973623050731 4.154549753546783 0 0 0
1864 1832 4 8.968739402554293 4.85888468882403 3.233537179923836 -1 0 0
1151 1119 4 6.831427018850517 1.3878254202240605 0.8594214588883831 -1 -1 2
642 610 4 2.294838366376775 3.1801769968971088 0.2935448196822322 2 0 0
1320 1288 4 3.5280239556301236 3.7270467008916675 1.538326384161479 0 1 -1
2370 2338 4 0.38862776430878493 0.25996843088075605 6.6956591622701565 0 0 -2
877 845 4 6.984103827284239 1.0704971947765216 3.620759491337708 1 1 -2
940 908 4 2.126821147642489 4.75992764747694 8.7615316524291 1 1 2
996 964 4 4.633328118280049 8.418909160915915 4.244525999059621 0 0 -1
1696 1664 4 6.902822333666212 7.430975375794473 1.4826255701221231 1 0 0
1761 1729 4 5.732107589638274 6.621005496328389 2.6478127895365993 2 -1 0
2444 2412 4 1.6617291769173161 0.9460299095783089 2.4951225712215326 0 1 -1
1615 1583 4 5.365296376431955 3.211448050683245 1.9756713380967736 0 0 1
1089 1057 4 5.771217047018085 6.6646380507144025 4.503693956687853 2 2 1
1344 1312 4 6.9004994266791755 5.7535098058982515 9.058299756992316 -1 1 0
2128 2096 4 1.8421924010350246 4.975756714759231 0.27804241212754816 0 1 -1
1044 1012 4 0.6725572964344674 5.691922331499975 7.5305650185264446 1 0 0
1252 1220 4 6.143996589874722 2.8684647148840834 4.114243115978291 -1 0 1
1342 1310 4 6.841272443086977 2.041196725512667 3.5440598770627996 1 2 0
311 279 4 9.475149741705843 5.945233172336506 9.850656083768564 0 0 -2
463 431 4 8.832572109238022 9.427727322124065 2.220813018488103 -1 1 0
2108 2076 4 7.709747679874798 8.673204059617726 0.8629064483022338 -1 1 0
1434 1402 4 4.485339545710699 0.5678756354786754 5.193076931289733 1 1 -1
430 398 4 4.312557275759094 7.199075313978572 5.379517089998195 -3 1 0
2360 2328 4 6.311230980078132 9.743821066217047 4.575249882436365 1 -2 1
2904 2872 4 4.671579078387147 3.359916465011356 0.12813762959084307 0 -1 2
3153 3121 4 1.2673518350252424 7.979503763677252 2.1896142726291403 -1 0 -1
1629 1597 4 4.015183018436926 8.105042239445984 0.2901292969920922 -1 0 -1
3305 3273 4 1.6468270226546327 2.994169273190021 4.262620242510087 1 1 -1
2740 2708 4 8.31698754171502 0.2863028182501122 4.563110504324117 1 -1 0
183 151 4 2.4496889111756954 4.313035054473344 3.198946942808681 1 -1 1
1511 1479 4 9.108209913819419 1.6903073799940656 5.838002980496113 -1 1 0
3393 3361 4 4.4801576598202955 1.2671253561647666 9.225158443009907 0 1 0
623 591 4 7.30424187460364 0.40062246866273277 0.27437994267460164 -2 1 -1
3156 3124 4 6.513102459506576 8.979983947419624 4.86624855487548 -2 2 0
1433 1401 4 7.006789009967231 3.9321160000556383 6.93657552303571 -1 -1 -1
1266 1234 4 1.8636356374974734 9.746996423620393 7.106816491369952 1 1 0
53 21 4 2.6417393153409163 0.5786501293137464 0.6428346638557556 0 1 -1
2306 2274 4 7.549429908782922 9.72170865618401 6.619180511461235 -2 1 0
893 861 4 7.815730552556522 6.981644933069874 5.66268848204659 0 0 0
598 566 4 7.112287764025273 1.0331741233153526 8.261169532423216 -2 0 0
2653 2621 4 0.5552114805505167 3.6624632268949235 0.6398977293940467 1 -1 1
3063 3031 4 4.3000271935416805 7.941876703158793 5.791702176187839 0 -1 -1
2052 2020 4 2.874911072936301 9.640085197617209 4.467442115770963 1 0 0
722 690 4 3.967308392982319 0.23071630041207988 3.3762125538141974 0 -2 -1
1600 1568 4 3.764383587259952 3.9934144835892096 1.8544246955821522 0 0 -1
2287 2255 4 4.1319377660596315 9.111301871636806 1.8276448207094662 -1 0 2
2797 2765 4 2.287038763893568 5.169241455742441 1.2480939470822032 0 -1 0
1917 1885 4 8.864740801500282 0.7679093515738132 0.9226747744770496 0 1 3
2321 2289 4 8.576005998113477 0.3475606451254943 1.9241568026190659 2 0 -1
2651 2619 4 8.268709380728973 3.949609866961392 6.3650688945061455 1 1 0
3278 3246 4 9.405282416073442 7.487910761722719 3.191950190056871 2 -1 1
2763 2731 4 0.7298202353250061 4.622935643625889 5.064915681601647 1 -2 -1
318 286 4 6.9835303995346045 9.232372165431359 9.653084809706737 0 -2 1
1284 1252 4 3.8159413004523275 3.788991741493375 8.271208139554998 0 1 -1
630 598 4 9.734260025682874 9.519223535961432 1.2945650441762115 0 0 0
176 144 4 0.3762255404815623 4.2284677016511205 4.1343291457230364 -2 0 0
2723 2691 4 4.550298153503212 0.18329509326785626 2.5654166157482274 -1 2 0
1750 1718 4 2.632955318579054 0.5432544865091565 6.980461170903129 2 0 0
753 721 4 9.024582105672774 9.059232982494681 5.823581417415981 1 2 1
1743 1711 4 5.996142983219592 4.6150833967393865 9.603070898711831 -2 1 0
555 523 4 4.4808737999567505 5.060313760812125 3.924113402892081 -3 -1 -1
1462 1430 4 7.9608817011224 6.970765117319651 7.644413205804606 1 0 0
3336 3304 4 4.359592452982582 0.3424937888587945 8.960976314486972 1 0 -1
2285 2253 4 9.137970794674185 5.154070107134659 3.833025960176427 1 0 -1
1218 1186 4 6.882869647757813 2.582542957164131 5.159763246616464 0 0 1
3387 3355 4 3.682151081377418 1.2343201190153041 5.3525761114316275 0 -1 0
2987 2955 4 2.2816474708386822 8.870768205974546 5.693884765066419 -1 0 -2
1722 1690 4 8.09121977628455 2.374336565212183 8.287532428134883 -1 0 0
3358 3326 4 4.860580942109129 3.8209884878853226 1.5371139866795271 0 -2 0
3197 3165 4 0.8180687121549559 7.178306381163068 2.014288941128617 2 2 0
645 613 4 7.273826197951432 3.736197720944882 2.809324716668698 -1 0 2
3381 3349 4 5.102718232674444 7.126831881984816 6.467991359466898 0 0 1
2026 1994 4 1.7294054311723799 7.400561076332501 2.178873187018774 0 0 1