LAMMPS data file via write_data, version 29 Oct 2020, timestep = 3500

3415 atoms
5 atom types
47 bonds
7 bond types

0.0 10.0 xlo xhi
0.0 10.0 ylo yhi
0.0 10.0 zlo zhi

Masses

1 1
2 1
3 1
4 1
5 1

Pair Coeffs # dpd

1 25 1
2 25 1
3 25 1
4 25 1
5 25 1

Bond Coeffs # harmonic

1 4 1
2 4 1
3 4 1
4 4 1
5 4 1
6 4 1
7 4 1

Atoms # bond

3233 3201 4 2.032374546715938 7.4036621837464756 0.7754491880995059 1 -1 1
2567 2535 4 6.645687411258705 3.1453520227587113 2.8361773492781026 -1 2 1
1380 1348 4 6.761348449447929 0.5861579143713069 1.0509196698232626 0 1 0
1346 1314 4 7.156160037995979 2.7495822279758255 8.125933633433625 0 1 0
3229 3197 4 3.1975223772957246 2.411859193144081 3.7992202802305455 1 1 1
2024 1992 4 9.485210568959891 2.5782556164469894 8.477157129324778 -1 1 1
3145 3113 4 7.361531024981225 4.953809626347088 4.64405951366572 0 -1 -1
1984 1952 4 7.831628106727318 2.4550661747860802 9.328828966698685 3 1 0
2650 2618 4 2.9643394187047596 2.708761309596545 7.562583802469956 -1 0 -1
984 952 4 8.04362683100026 8.845808992352291 1.7252053097467615 -1 -2 2
3305 3273 4 7.734348060989088 8.034164892239414 0.7536359394153677 1 -1 0
1514 1482 4 4.5928067055464625 1.950504448899444 4.208681591505924 0 0 1
2215 2183 4 9.452333357505399 0.5872176946612016 4.424103986361393 0 1 0
3154 3122 4 1.1970298848482785 5.543664410796897 3.9039292350192647 1 2 -1
2992 2960 4 8.961718875748408 5.037151831807963 4.541926341816039 -1 0 -2
3123 3091 4 6.164629856128164 4.136044109686633 3.061120290111291 -2 -1 1
3191 3159 4 3.738062860929031 0.09705173778370131 4.139041582426371 1 -2 2
920 888 4 6.783766743715292 0.5196343666038892 5.638834924711404 1 0 -1
3271 3239 4 0.18858161446576222 8.47542359467732 9.42896646846414 -2 -1 1
1760 1728 4 9.473374071762583 7.69434573052207 6.286344124687926 -1 -1 -1
2196 2164 4 6.037445333685886 8.641761172216412 4.307287914372848 0 -1 -1
2697 2665 4 2.300458637528434 3.166922833375688 0.5862159198026012 0 0 0
1251 1219 4 5.085635661217014 0.7278934215231124 0.7116066367952311 0 0 0
2836 2804 4 8.712940601237761 4.106037204385325 7.754989961138697 0 -2 -1
288 256 4 2.621416441751693 7.9104211497894825 2.125749409325336 0 -1 -1
1945 1913 4 2.173001150304852 6.231860096124357 0.1326133524791942 1 -2 1
1895 1863 4 4.657695179317358 2.579654758984218 4.111130058011279 -2 -1 -1
407 375 4 0.7924218647125855 1.3572226978499375 0.11121218916974832 0 -1 1
1068 1036 4 3.8286828970718347 6.505805037286906 4.066266619597658 2 1 0
2826 2794 4 9.341017163550715 3.4911534010929337 8.34915932971223 -1 0 0
88 56 4 9.69787835689578 1.2073731659363163 4.291003602539045 -1 3 0
572 540 4 1.3298751499790902 2.833686027396497 2.599741017947965 -2 -1 0
1427 1395 4 8.362242204776486 6.8221081665265055 4.02936501275157 0 0 2
474 442 4 1.06110915240067 9.599189323308114 6.376034593040308 0 0 -1
1275 1243 4 7.96803389209077 5.58688277577358 2.904516300293368 1 0 1
2012 1980 4 3.0399902160631864 1.3627801294637139 1.9320234619240169 0 1 1
728 696 4 9.583444705048622 9.035659406668376 8.09015925952502 -1 0 -2
2257 2225 4 5.06773306052464 4.04778274073089 4.261174029955507 1 0 2
3257 3225 4 1.5744292900192975 1.436399504025727 9.816214375731061 1 1 0
1270 1238 4 5.6533482187342186 8.074266621799728 8.926986047567626 -1 1 -1
1378 1346 4 4.692984863136189 9.56828999732252 9.1561585427531 -1 -1 -2
124 92 4 7.633378286179614 8.755621538725785 0.47560495233550804 -1 -1 0
312 280 4 5.282631877894661 3.3278977597252863 5.222041159664835 0 -1 -2
1967 1935 4 2.528344467814024 3.261288635820129 4.836007649915646 0 1 -1
1195 1163 4 2.430654183529859 6.752294147069035 9.435145634056527 1 -2 -1
2332 2300 4 5.289399260978726 0.8638671995689291 3.6866462131232054 1 -1 -1
998 966 4 3.985582181321171 3.685445455315234 6.264253814277137 0 0 -1
2071 2039 4 0.7816832194439618 0.3480129249312823 4.310746674521413 0 1 -1
606 574 4 7.5786020162509535 4.942483894599683 9.566306746004352 -2 1 1
2961 2929 4 6.901927948717365 5.0712021660234425 2.6460016708146252 1 -1 3
2408 2376 4 5.597509619147382 9.71034284416784 5.046697214643349 0 0 -2
80 48 4 3.7351760123369124 9.058670021590054 3.356721870337846 1 0 -1
2497 2465 4 4.389056176720228 9.414594688065183 8.107839075823993 0 0 0
2447 2415 4 0.3234540181127999 3.5862035953369853 3.5872843294588526 0 1 0
2969 2937 4 9.541556489791384 2.5196978668795795 6.047002044401961 -2 1 -2
425 393 4 9.401352506743986 0.3232776066672478 6.339280059871807 1 0 1
2401 2369 4 1.556740860678064 0.830382576331091 4.194037950189263 0 0 2
3275 3243 4 0.9033551359501367 9.314168822916592 3.974731823193369 -1 1 2
1962 1930 4 6.301314456388598 2.0326836631027922 8.15152402256147 0 2 2
2330 2298 4 7.289118451813123 5.391017353638708 9.028167525904099 0 1 -1
496 464 4 0.20301809697704182 5.071694519085462 9.96182399578187 3 -1 -1
3198 3166 4 4.374595922535268 8.147079464160823 6.816422418990468 0 -1 -1
2092 2060 4 4.988596163150141 3.5987813330159693 6.027352030261816 1 1 2
1077 1045 4 7.762899547898663 9.451518545959376 2.2873545548235583 -1 0 0
749 717 4 6.60970940070706 2.005927203440679 3.574963371984333 -1 0 0
3347 3315 4 5.757090536436999 8.239759426592771 1.3623158531923538 0 0 -1
2802 2770 4 0.7738884763097135 2.0241077639232494 3.9312497430210143 -1 1 1
519 487 4 5.687050697720251 5.903300574838953 1.2077211403978787 0 -2 0
1313 1281 4 7.574144190440003 1.1220992407792119 7.311642418039545 1 1 -1
493 461 4 6.423817946850881 8.439299593746561 5.712994394469919 2 2 -1
761 729 4 9.342105983726952 1.6519816986705997 9.931461087672 -2 1 0
2300 2268 4 9.603246236030126 5.591624165032254 9.217260776947537 -1 -1 -1
2788 2756 4 9.038187416837957 4.358892324392439 5.700368115584446 0 -1 0
1437 1405 4 9.883157595424679 5.829475290965414 5.166476252241527 1 1 -1
420 388 4 0.8507099589930418 9.857502889021147 0.053275511580988436 -1 -2 0
2991 2959 4 4.740229386309017 5.60160852011893 6.495350621167669 0 1 3
2361 2329 4 6.952375167337389 2.52682759010664 9.433437470565108 0 0 0
2181 2149 4 0.7339976281371074 4.22163526455213 5.571108090338385 1 -1 -2
1174 1142 4 6.658736755721958 0.17435756615236422 3.0972758636908324 1 2 -1
612 580 4 5.222142059511982 0.0698590894722387 6.482372506138964 0 0 -1
2334 2302 4 7.940397290726111 4.992092449310028 3.576203308539554 0 1 -1
545 513 4 6.1978016293340445 0.13845233428792889 3.754014673290778 -1 1 1
795 763 4 9.237621400421583 3.512139023809666 9.793682983987754 -1 -2 0
1453 1421 4 8.765478773427839 0.254558450934131 5.086757358200539 -2 3 2
926 894 4 2.2170623092687762 3.9744222724013087 4.752583340739644 1 -1 0
3295 3263 4 5.811025458676388 3.8703194886322727 0.8860009397988374 1 0 0
1259 1227 4 8.068450471797616 2.4798096960183496 5.5680518434351685 -1 1 0
2723 2691 4 8.725206649801681 7.4152681316367675 6.366865302753267 0 1 -1
1696 1664 4 8.039384029279251 6.935624261407639 7.018623975180538 -1 0 -1
2680 2648 4 3.115952793972987 4.659902472984103 2.6646451519295997 2 -1 2
2062 2030 4 2.074190760570235 8.442060042095727 7.946862489342963 2 0 0
2989 2957 4 4.669882168273069 4.398685348053266 5.61953416933935 1 0 0
448 416 4 8.327651765376878 3.373490983288979 4.426023710243701 -1 0 2
844 812 4 3.332900126500246 3.4999426005115986 1.2744566509119055 0 -2 0
162 130 4 4.774399879505709 9.527248633271254 7.41423435278434 1 -1 -1
956 924 4 7.277821651252881 9.747559768269898 6.878261437463229 0 -1 0
1034 1002 4 9.97134337927765 9.208025512564364 3.1680858304238906 -1 0 -1
57 25 4 3.7052856825264575 2.1322584163535723 2.0681126780266395 -1 0 -1
2322 2290 4 8.689737776421916 1.9573231429581308 8.032641575420179 0 -1 0
157 125 4 5.954896267523486 0.22530263354181765 0.7905188522653862 1 1 0
459 427 4 6.9918702468035665 9.776804377248753 1.4130084218498165 -2 0 0
1987 1955 4 1.630842520133363 5.888972976353506 2.5903288229972725 2 0 1
1468 1436 4 5.52759222241319 5.582796669135768 1.6307968619431528 -1 -1 0
1407 1375 4 2.46105412720727 3.011521477925241 5.453844743304109 0 0 1
2709 2677 4 8.592326355777764 2.3775541180257163 3.1209930555150978 0 1 0
2442 2410 4 0.35141403126142323 7.4487271310325145 1.9454859343787647 1 -2 1
3004 2972 4 0.5605929323663239 3.0250043845766457 5.4214310112990445 1 1 -1
2644 2612 4 8.761062123729086 2.0058301895912076 3.3452047200831596 0 2 1
1308 1276 4 3.646535761129415 5.556727023404863 1.9713528466114778 0 1 1
1683 1651 4 1.5265334905491499 8.890195260304944 3.4390676856840092 1 1 0
2536 2504 4 3.91884738414971 2.2511031390827143 4.887112482198228 0 1 1
704 672 4 0.680477307001253 5.232371673275303 8.10753874276363 1 -1 -2
254 222 4 6.1005388996610925 0.7017741413561911 3.5497084820199976 -2 2 2
494 462 4 5.824698918146909 6.464656021981249 1.4899132532449624 -1 -2 0
226 194 4 9.554772380534862 6.803033843807448 8.289549522547153 0 2 -1
1929 1897 4 6.930653366873232 1.361275349923374 7.511820522868624 2 1 0
1347 1315 4 8.019130435573897 0.4513632979366356 2.573198720650503 2 1 -1
3397 3365 4 1.3289704903939292 4.021305058536318 0.6971153872772393 2 0 -1
2120 2088 4 4.858582761062529 5.2238588174861045 9.53670653186964 0 -1 0
195 163 4 0.5339281799391216 6.522390868027701 1.463247639470376 0 0 0
1388 1356 4 7.094879301880029 0.05932133141984538 0.4311645746282825 0 0 1
2046 2014 4 0.035057753525775226 0.23791378946918532 1.6745934382084018 0 -1 1
2188 2156 4 7.562654385764648 9.37323187971408 3.814356685283445 1 0 2
267 235 4 4.720708135238275 2.699784417713844 2.673205413392298 -3 0 1
2803 2771 4 7.297305478004865 0.07768054177441086 5.982399773708961 -2 2 1
976 944 4 2.7241482608881347 3.5513505933453136 8.584223315456878 1 0 -3
2083 2051 4 8.104479602322462 3.1190089065975046 5.427078300500798 0 -1 0
1856 1824 4 8.539724142175205 3.777306804380205 1.8681181287974553 -2 0 0
1141 1109 4 7.44417251460592 8.513143963190297 4.675145058112324 0 -2 1
580 548 4 9.019162423681738 7.298536038269349 4.115018213421667 -1 0 -1
2640 2608 4 2.5072966038809397 1.2686940965917748 7.174566100918295 1 1 -1
1365 1333 4 4.3463919778249025 7.838159491390711 3.321255906895837 0 1 0
2222 2190 4 7.394198830111616 3.305089212068856 1.2076135517027151 0 2 0
2192 2160 4 5.005043529911421 2.496848174168555 3.592764770562539 0 1 0
1657 1625 4 2.4332295775990618 3.783769228592053 5.219943429454349 1 1 1
2556 2524 4 8.198506820551057 4.113641966481289 5.545219266972503 -1 0 -1
3159 3127 4 5.29818836925598 9.709980489784877 9.782295579019065 0 0 -3
2868 2836 4 3.546344902034295 4.424203012529789 9.544500870031152 1 0 -1
3392 3360 4 6.136568108647509 3.941602927309075 5.585004458727483 0 1 2
2134 2102 4 9.028225446802395 5.509910965999125 0.9760442394667083 -1 -1 0
3076 3044 4 8.66229799356157 3.6556458164619876 7.737596806709429 0 -2 -1
231 199 4 8.978765309932196 5.709219095001331 1.830226619372783 -1 -1 0
3289 3257 4 5.865731922014637 9.220922036015976 3.3894994924850708 -1 0 -1
659 627 4 4.829192537137061 5.286138709661292 7.044292373714592 0 0 0
1751 1719 4 4.274165897692507 8.152870520761606 5.518834731519354 0 1 0
2760 2728 4 6.318491058243846 1.1364063643346558 5.386169511410414 2 2 1
3199 3167 4 6.706613384339698 5.791170745421315 2.3540981484671755 1 -1 1
259 227 4 3.840071834129539 8.390326361259365 9.049959978947047 -1 0 -1
1054 1022 4 8.454712420447976 1.1094903008180503 2.5645018949178473 0 1 -2
1435 1403 4 4.422622733527587 9.353930910918168 9.519216476811154 0 0 0
42 10 4 7.976693512493047 2.7081557690154114 3.1567793868251233 2 0 -3
1770 1738 4 6.242079133308885 9.88332288845282 1.1029339235808449 0 -1 1
1568 1536 4 6.513005232251309 6.251891042389136 3.7774607707936725 0 1 -1
2163 2131 4 1.2806961740387555 6.612732355105249 3.5818603273021203 -1 0 0
219 187 4 7.178068735700953 9.654073698334082 9.60887085378055 0 -2 -1
598 566 4 2.481703314804131 3.5670067940915304 3.1269817447474484 0 -1 0
530 498 4 8.67664253264896 6.31285001187871 3.178367974934375 1 1 0
891 859 4 9.656626411753802 0.636982756557982 7.625462470391335 0 -1 0
365 333 4 8.029795985715225 8.212513096391435 6.761470540064474 -2 1 0
2236 2204 4 7.5491077085427065 9.303702063490476 2.962336430177381 -1 0 0
1875 1843 4 2.801940012452875 0.10443188775861689 0.246252481776592 0 1 1
1673 1641 4 0.9782475697465611 1.1136394343930933 3.245360809354143 -1 1 2
3366 3334 4 8.959576260833629 8.958265597256323 5.281324015225103 1 0 1
3407 3375 4 7.050522465746431 7.904315893922048 5.499462574583193 2 0 0
170 138 4 3.1675260049755845 9.990877396196227 4.675124713261792 -1 -1 0
2935 2903 4 2.1450528326735574 3.254293594002516 6.679211831100978 2 0 3
2582 2550 4 0.19050890459252542 5.713414919341115 7.174600960020865 0 1 1
3368 3336 4 0.2608372204601949 7.9355156725820075 9.142921074453534 2 0 2
46 14 4 4.681884398543676 6.217572876579713 2.327839233637181 -1 -1 3
3330 3298 4 1.0726928522974135 4.03748735295446 1.2558765906522174 2 1 1
2773 2741 4 1.9480466534099745 0.9595130512342889 0.1346417913643216 0 -1 0
615 583 4 9.82520244581991 6.876932514719862 3.4920606452151137 -1 0 1
2790 2758 4 4.577309478816116 7.692908696681744 3.0220128317186923 2 -1 0
1952 1920 4 9.594518591670061 6.7696574134157546 6.781465169448878 -2 -2 0
146 114 4 1.864209994070444 0.7417823835727765 8.016608403448624 1 0 0
714 682 4 0.5014327439939854 8.546156320022893 3.133627818265167 0 0 0
1107 1075 4 4.330376302867052 2.5789009236381535 9.76927673681043 -1 -2 -1
248 216 4 9.156010393098192 8.511183932324677 9.531759908743949 -2 -2 1
3090 3058 4 9.629109836004238 8.462261588544289 4.188815598834262 -1 -1 0
2146 2114 4 4.060226782930427 5.504754757615114 1.060681015650895 -3 0 1
983 951 4 4.877775926961658 8.792374376846265 6.675748504310635 0 -1 1
541 509 4 2.0502060555656243 4.481238594387809 4.372930212574977 0 -1 0
499 467 4 6.279072296234369 4.783616389796724 8.198742016276078 -1 0 -2
1800 1768 4 7.164293384088887 8.82043053791238 1.2471195160245996 -2 0 2
1235 1203 4 6.020042611281403 8.34969268975859 0.7902666201621236 0 -1 -1
2144 2112 4 9.747095361709563 9.69041421158963 4.279718431801274 0 0 0
1677 1645 4 5.045941323742996 9.873586892314972 0.7444173618397703 2 1 2
834 802 4 6.687624927445476 0.6373513616543429 8.870042302667544 -1 0 -2
3166 3134 4 3.454162195476169 3.117314344448044 7.60416225923153 0 -1 -1
3117 3085 4 1.8040802969605554 5.353684535461389 8.594429629366246 1 1 0
2962 2930 4 6.864996825711545 0.7860735078706548 3.8698814882643626 2 0 1
1790 1758 4 1.6962912476065246 0.6117357954465475 1.6572934460850381 0 2 0
1886 1854 4 9.672987769207094 9.737725396001272 7.768452930425451 0 -2 -1
2028 1996 4 5.003752284148845 4.234301022483766 7.537495857184246 0 1 1
354 322 4 0.08016577406076371 5.7118224702300004 0.5570241915183584 0 -1 1
765 733 4 8.849314088359538 5.9820128136851185 9.93702516348036 0 -2 1
1157 1125 4 6.056054829287209 6.308124116572273 9.15402165691385 1 0 -2
74 42 4 9.330954194652794 7.908971733637946 2.821711755532812 -3 0 1
2200 2168 4 4.718080793530654 3.5019546965985144 0.5723252471369682 0 -2 1
396 364 4 3.2815985018255334 9.744849892756832 4.155430397220881 0 0 -1
1573 1541 4 8.64883879056478 0.9260382871353502 3.405656763095123 0 0 2
2394 2362 4 7.946446607026998 5.55483000928095 0.001624886207956422 -2 0 1
927 895 4 6.4153400701945005 7.2693171070555165 6.656198636498157 -1 0 0
2719 2687 4 0.8219235458905587 8.317488410621971 0.8943145643710535 0 0 -1
553 521 4 9.074895866332671 4.860750887747767 9.011734708695213 -1 1 -2
229 197 4 6.766847422920792 7.5399147582737625 3.9866701179857746 0 0 1
2514 2482 4 0.29047518704167513 3.4138273984933267 8.493532159213247 -1 0 -1
1884 1852 4 4.17406108096771 8.869144157686522 1.7061962051169757 1 -1 1
1641 1609 4 7.421214729599564 7.476948283866763 8.043829516998338 -3 1 -1
451 419 4 9.625672816353083 0.6745044471459154 2.929005093323554 -1 3 1
1579 1547 4 1.540858208446102 8.549370595524735 8.12753927289467 0 -1 0
1405 1373 4 4.970814478326226 6.243323055132104 3.097956219480322 1 0 0
1154 1122 4 1.8242568535666135 0.19112061851888723 1.0064123252895556 1 1 0
372 340 4 1.4104279115444742 2.112545207975507 5.724702996807746 0 1 -1
2386 2354 4 7.335990932286029 7.017430948659075 9.575317646341844 -1 0 0
1829 1797 4 9.177595071664342 4.469550336841403 9.343670226498478 -1 0 -1
687 655 4 2.6067647479019183 8.37093297911634 2.42920028235217 -1 0 1
3124 3092 4 7.015396152983224 0.11284954143020541 5.020916954369644 0 2 2
2917 2885 4 6.300434366111313 6.913723219637878 7.4283512484113885 -1 -1 0
586 554 4 2.3209662002172644 3.3292747553307938 7.24557242478917 0 0 -1
2717 2685 4 3.018845799195858 7.043067751473004 9.526353958235736 1 -1 -1
2003 1971 4 9.543647612664223 1.0976486293486494 9.985563906280683 0 -1 -1
1390 1358 4 8.477544348537306 3.6718845689415827 6.071038423113008 -1 0 -1
2726 2694 4 1.9598148509240116 1.9682676949077567 0.00988193610688981 0 0 0
603 571 4 7.153483791346602 0.20660253632701292 9.118252697660703 1 0 2
1690 1658 4 0.0749254374251772 1.364688977402699 5.366621611262463 0 1 1
815 783 4 8.873684820817632 7.453926972746917 4.769499653959798 1 -1 0
385 353 4 3.5547985816135292 6.657073866993508 9.737691560303654 -1 1 -1
741 709 4 2.171457163443187 9.337124962631398 4.8607631280041845 2 0 -1
1850 1818 4 6.915454884061412 1.056415511668463 7.256242361173379 -2 0 1
2014 1982 4 1.1491528846629382 2.5568868924277433 8.65796912160701 -1 1 -3
2758 2726 4 9.674445958487302 7.694408295097354 1.738784350075164 0 -1 -1
1271 1239 4 8.302541124487268 6.1193192392499824 8.876123428920565 0 -1 -2
2187 2155 4 2.44954465212543 2.406061357345678 9.430324120788747 1 -1 0
1546 1514 4 8.309079131394991 0.02980279705452642 7.924334468336197 -2 1 -1
1877 1845 4 5.793181315161723 7.221457256186229 1.782184355132519 -2 0 2
2562 2530 4 3.4077782637907608 7.710216391112294 1.840233104706395 0 -1 1
2742 2710 4 8.498217703943181 8.02730603162767 9.321356383645059 -1 0 0
1897 1865 4 9.753290215264592 7.422052129025455 3.840602747625579 1 1 0
2164 2132 4 4.874225839274143 7.695537199023444 1.7873917044489216 -1 -1 1
778 746 4 0.8572500408669872 0.043709942188196176 9.199133284146523 1 -1 1
98 66 4 1.9478081538935523 0.5655827132893003 9.499384866093854 0 2 0
1907 1875 4 4.831600229771395 6.551696165692617 5.652363048188094 2 -1 0
1928 1896 4 4.6489268551867005 4.848395431459796 8.019642902279596 2 -1 0
1479 1447 4 1.4861616359251135 2.8265551722592157 0.49709731882609 1 0 1
1367 1335 4 5.762185928785827 1.982894714678849 3.7177258689539503 1 -1 -1
356 324 4 4.121606043187562 9.828248371130288 1.3418655233704817 0 -1 1
1596 1564 4 8.832212462662921 2.20409873718342 6.511749346803676 0 -1 -1
2586 2554 4 2.7305210540616285 6.469721544975506 9.187555009045083 2 -1 0
131 99 4 6.003733596080348 1.3379213708433175 7.147547590796028 -2 -1 0
2034 2002 4 9.833739373115888 1.9262221289962103 1.4998358661793751 -2 -2 -1
1357 1325 4 3.5744289763430808 1.2770856155639845 7.060657046766372 0 0 -1
813 781 4 1.4015024004873349 8.550610850087159 8.925800755220367 1 -1 -2
2435 2403 4 1.1532820621953586 8.877620907374965 9.769374303710467 0 -2 2
862 830 4 1.4521984041294425 0.35286682960995724 7.6442246404041505 0 -1 -1
988 956 4 7.102161860456487 2.893164284106553 2.0659131894110954 2 1 0
2908 2876 4 8.66858159446011 0.7189458385316322 8.375337609562639 0 0 1
1130 1098 4 6.6659870473492475 3.263769489689705 1.2690272911020115 -2 -2 1
2960 2928 4 3.1201936772273067 0.23737211003547581 2.9264124287321547 0 0 1
2441 2409 4 5.76450258131848 9.345054798937422 7.314995145147183 0 -1 0
621 589 4 6.575963910348158 6.646831570430825 0.589228178467682 -1 0 -1
896 864 4 9.871675524745402 1.6382452770043714 7.156823996508297 -1 -2 2
799 767 4 5.292159808237646 1.5667432136796589 6.434472259674337 -1 0 -2
2670 2638 4 0.7229119321878688 3.931986697568794 7.9360420454149665 2 1 -1
1686 1654 4 4.087748850423707 9.198648998782621 8.875733810196571 -2 -2 0
2415 2383 4 6.973510941380181 9.982512640932889 8.472300134058191 0 0 -1
498 466 4 8.877020763938043 5.478811420895322 4.444178970764246 -1 -1 0
1272 1240 4 0.5711355237908106 8.683392015418345 6.324110631318322 0 -1 2
595 563 4 2.078664527656719 3.7452962841903896 0.09492041099756064 0 1 0
1354 1322 4 6.065147582383607 4.19979194641699 9.588322460767097 1 0 0
3411 3379 4 4.338060876668841 6.399309534868569 8.970469952805232 2 -1 -1
3251 3219 4 9.9113827271007 5.648062039048933 0.39394647095500135 1 0 -2
2600 2568 4 0.9548808522885172 9.148313500548914 7.984279009531011 1 0 0
3281 3249 4 7.831165836710592 2.8992122247278806 1.0715368077928573 -2 1 1
1896 1864 4 5.166439436164555 5.179714068424129 9.605315577209284 1 -2 -3
2479 2447 4 9.681384705895887 4.4905436319129155 4.859375069070918 0 0 -2
3287 3255 4 0.4060818833022651 1.5189127167861438 7.924142708863046 2 -1 0
379 347 4 7.688135474097355 1.750288304420147 9.684223334372538 -1 2 -1
1140 1108 4 4.950456283553426 5.222108219509339 8.986117440174805 0 1 -1
1543 1511 4 5.650233990704492 7.922011757135167 7.528030327966932 0 0 0
1572 1540 4 0.14616579134056362 0.08136997139037051 6.62493887466871 -1 1 2
1932 1900 4 5.609922196839962 0.9776075961132774 7.44226330315372 2 1 0
1658 1626 4 1.5138311918467877 2.324523416242341 6.526705127870415 0 2 1
2916 2884 4 4.055148502763291 1.6657562890649633 9.529394638830622 1 0 2
2686 2654 4 1.1855703436427154 8.510625636465555 1.1060652321793671 1 -1 2
699 667 4 2.4591687445759423 9.6684001061731 7.880339959422074 -1 0 1
2317 2285 4 5.382367142160758 9.32695271982575 2.4591040295356787 2 -3 -2
1110 1078 4 5.290593490022491 6.270607513309429 3.6232710645474944 1 0 -1
112 80 4 3.12761888254677 0.727954804230489 3.1290716134965986 -1 2 0
1189 1157 4 7.0885936285437925 2.865561831495115 4.655576755382794 1 0 0
2303 2271 4 8.175719272163457 0.020453638944140096 6.050683824527588 1 1 -1
378 346 4 2.415607928244464 1.5524352739118288 1.5965128219665203 0 1 0
1754 1722 4 3.536474498942363 9.967342940209516 3.127871741353764 0 1 0
1375 1343 4 3.159897372429681 9.339580432760156 6.122006500663065 1 -1 -1
1921 1889 4 5.557417063982368 8.166979460717803 6.469346122036536 1 1 0
3041 3009 4 9.910906669871983 2.0458691251024272 4.009052937494818 -2 1 -1
1386 1354 4 3.149035141672453 4.798652980232869 8.462249176642926 1 2 -2
204 172 4 1.968511291777462 3.052843962307453 1.8385769808947297 0 1 0
2207 2175 4 5.625043909412064 1.0075707516006933 9.580802356593159 1 0 1
394 362 4 7.664511559994332 1.5220722654404246 8.038149973371297 1 1 -2
1320 1288 4 9.583750678802827 3.9623351485426417 2.1130900132536774 0 1 0
3176 3144 4 9.078086336514197 5.46676310522596 3.6869517194454757 0 0 1
1726 1694 4 7.931110285934071 8.568993675171559 3.1995626245097033 0 1 0
2189 2157 4 1.9418387334675768 4.890575913668362 7.716653308347398 -1 0 0
2214 2182 4 4.847359210270524 4.703814979314843 6.373427014571063 0 3 0
2453 2421 4 9.052736383825563 4.1982825597521805 7.36307190586843 1 1 -2
388 356 4 9.147502554666424 5.505354695557993 3.1030076729833094 -1 -1 0
2110 2078 4 0.31619883504510143 7.656404343303156 2.792240428884614 0 -1 2
2306 2274 4 6.292330003524162 2.6910908025261593 9.098460881330162 1 -1 1
3268 3236 4 9.847247147834217 0.07360323947877805 8.307317882774598 -2 2 -2
3174 3142 4 7.5231553646539915 6.247851076794745 4.899990228783741 -1 -1 1
310 278 4 5.214708534355383 6.904336919709021 4.606495413224466 0 0 -1
53 21 4 5.7212606494517155 7.573158726147994 4.663770594491166 0 -2 -1
1483 1451 4 1.2334399329476722 4.810386088094863 5.93187772796793 -1 0 0
1878 1846 4 7.781154119354067 4.107742967023112 4.997406438505384 0 0 0
3151 3119 4 2.5786689327467704 3.9784628108769318 2.305194108975367 0 -1 -1
2154 2122 4 2.9583538919471017 6.908555089417201 2.0401119889736576 1 -2 0
1006 974 4 9.20234219921611 2.854342147467775 4.683977703102114 0 -1 1
383 351 4 0.5573607760569194 3.0646678059565464 8.840457004433002 0 2 -1
2604 2572 4 6.370328993171745 6.667478204154987 6.706651298529234 -1 -1 0
3000 2968 4 7.861240027464895 7.559670211601359 6.280588386676534 -1 -1 -1
2033 2001 4 0.05893324257083578 8.007501906037337 0.42814367861597163 0 -1 -1
1369 1337 4 6.261567175026408 6.287858933767583 5.1109103050706235 0 0 -1
1408 1376 4 0.010182169887671032 7.946746749939265 3.7732383759708705 -1 -1 0
3185 3153 4 8.561137984866606 2.6613300120587766 7.718354032333788 1 0 1
2925 2893 4 2.717607249880343 3.4979906042372337 5.9603430016801955 2 1 2
2381 2349 4 8.032793357009439 6.1622498652772775 1.7530782017269941 -2 1 -1
1417 1385 4 4.083136360219153 7.3161487725740075 2.2908857736096127 1 0 0
1535 1503 4 4.97676660339758 0.9370393176239527 9.430997381124092 0 0 2
126 94 4 6.238148088767431 7.645397452853845 9.684056011071464 -1 0 -1
1266 1234 4 5.29600881449604 9.774497444954674 4.698127157597236 0 -1 0
1930 1898 4 2.8644212721047118 8.891087333743469 7.980248720774123 0 -1 -1
228 196 4 5.638447400331113 2.596711932873136 0.7564831901292487 -2 -1 -1
2950 2918 4 0.12414735277315689 2.65358061131584 9.328062208801576 2 -1 1
1495 1463 4 8.666782199464 3.563489144340536 7.1383712843317495 -2 0 0
1784 1752 4 3.579171548902949 6.463922672600378 4.462208315310653 1 1 0
2739 2707 4 8.153856771048313 8.379930287604308 0.06154428413670296 -2 -1 1
1600 1568 4 7.776787376387924 3.2964556856233864 6.058314950009516 -1 0 0
1389 1357 4 4.100584338346482 1.016638313748873 7.162404165333236 0 1 0
3338 3306 4 8.221762777221636 8.731557176651638 0.7212551572911561 2 0 1
173 141 4 0.27369621235552327 0.008418397548959788 2.3405990477576113 1 1 0
1540 1508 4 7.8561751821292365 3.0827872243725434 9.539734421191447 -1 -1 -1
3342 3310 4 2.571026888576725 9.57119344561033 4.31147550419195 0 0 1
435 403 4 2.567830711018366 1.878407611195795 6.040026826482568 2 0 0
104 72 4 2.19233884862693 2.077020676457965 1.5767836645617164 1 -1 -1
285 253 4 3.7257877752770012 1.7763367527511567 4.19287333726682 0 0 0
1734 1702 4 2.9248666422224137 8.163033475618088 8.194058060135902 0 -1 0
2676 2644 4 5.150351938399409 4.616190233923036 9.279888045912278 0 -1 1
2593 2561 4 5.031742170991577 1.7984194236922426 7.612253070965636 -1 1 -2
1779 1747 4 4.950224941159793 5.569375788457602 2.8277681038022737 0 1 -1
202 170 4 6.047374593253028 7.360020480718619 6.205870481212996 0 -2 -1
142 110 4 0.19799304851017918 3.0250539804830288 5.847898500287075 0 -1 -2
521 489 4 0.7302885671059817 2.7197800557748173 6.199682670599799 1 0 1
2610 2578 4 7.725347931553091 7.025913024186948 2.0710976636110923 1 -1 1
508 476 4 3.0871946963076935 2.8746867306041093 9.17574719867686 0 1 -1
2870 2838 4 7.163895850282863 7.640622851007902 4.193233992217756 -1 0 0
3071 3039 4 1.8978611677773025 6.8223114439814605 1.1496502548586671 -1 -1 -1
1738 1706 4 4.376065368842055 1.9253439334642695 8.89979520207291 0 2 -2
647 615 4 3.2365777820715027 2.1784043201098924 0.5628175710411447 -2 0 0
3182 3150 4 0.4157043889861851 5.58475010024559 9.604617187387682 0 2 0
1663 1631 4 0.515332921683493 5.32089455473552 6.8484188450173935 1 0 -2
138 106 4 4.564857330471408 6.80424758945763 3.4049828127976536 0 0 3
360 328 4 6.508211488341644 8.611990505030285 3.790313661975393 2 -1 0
2213 2181 4 9.763170901183933 5.2771060348710215 7.906896973370752 0 1 0
1260 1228 4 6.58519845690376 3.385151696482972 8.836066986234417 0 0 -2
3321 3289 4 2.4458096942945105 5.026527734963174 5.0368604775950265 0 -2 0
337 305 4 3.9904449472810772 4.579966268318208 6.817015402799325 0 1 1
532 500 4 5.765611288862207 5.22205645446929 9.83346287866783 2 0 1
808 776 4 1.6311136279801697 3.197958252024581 1.1393213908607476 -2 0 1
2850 2818 4 7.7694787498843025 9.430627799712614 0.7349678172012607 -1 -1 2
1000 968 4 1.876207185545394 5.627651906575371 7.872776992981082 -1 -1 -2
2104 2072 4 2.0654258286904117 3.901687431172568 5.664605508246764 0 0 2
518 486 4 8.008743554845388 4.385952427666352 1.8944426465322508 0 -1 0
1765 1733 4 9.254545307750064 6.4316139969635735 1.7491567458557156 1 -1 -1
3365 3333 4 3.2416723342907865 5.110229808167516 0.7156404932549173 0 0 1
3292 3260 4 3.4293380328412075 5.162790787558971 9.317660536172317 1 1 0
812 780 4 9.428546797869638 8.367220713571655 9.887613504308115 -1 -1 0
2248 2216 4 9.013531549618355 9.685917473958717 3.6597734276727314 0 1 0
1046 1014 4 5.9516844090214756 3.5168257241907197 7.9733304044615805 0 1 -1
2755 2723 4 1.6661773853857285 3.227188130079245 7.365409308091588 2 -1 -1
2129 2097 4 0.7734507335206842 3.1280851996547354 0.701066540127705 1 -2 1
1126 1094 4 3.4586644935226754 4.952942489147588 8.41744408762967 0 0 -1
3319 3287 4 4.554214503694258 7.9057994050733695 7.036923331909845 0 0 0
1399 1367 4 2.250281280638766 1.5382662730451229 5.121537987094649 3 1 -1
137 105 4 0.5295334840417046 6.314500919798592 3.7297380239563798 2 0 0
2724 2692 4 9.408543421454546 2.451697713837653 9.020230798912896 1 1 0
948 916 4 5.692753922246445 8.471925097726487 5.774851528029439 -2 2 0
3040 3008 4 5.6753398843220095 5.5708321031080485 7.791891771323889 0 0 0
673 641 4 8.86940202835786 1.6460605388513003 5.40623640585612 -1 0 0
2119 2087 4 5.401482714480098 5.465167775482218 3.8094176490955696 1 -2 -1
684 652 4 3.1815913533322053 1.4619357291951596 9.21232757709338 2 -1 0
357 325 4 0.6343225591096429 1.0254134523379212 2.8350684626065075 -1 1 1
1323 1291 4 2.3767682499349707 4.265658841225021 4.916636502111066 1 0 -2
3070 3038 4 6.354667964485163 4.0718058484996185 8.68571109244439 -2 0 -1
2421 2389 4 8.917922879036357 6.980365582349412 5.36160770737278 -2 -1 0
243 211 4 3.5097955849685163 7.101179967922893 2.809378879230695 -1 0 1
1011 979 4 8.545394613512354 1.4106680182333302 7.068193975990752 1 0 -1
341 309 4 2.558084693879426 0.8658415454341278 8.016935922093428 1 0 -1
1330 1298 4 8.131602161152983 1.7954779459512074 5.526451423546709 2 0 2
1183 1151 4 1.276137940907077 0.153188978426201 1.887013382329049 0 0 -1
402 370 4 0.7481122619468885 8.65329799645791 4.6055685403809665 2 0 1
876 844 4 3.2669465297993328 0.4282956099351918 5.9289845415455 -1 1 0
1847 1815 4 3.5024936581814194 9.244431554141585 6.486495878085519 2 0 -1
2834 2802 4 9.669252860156487 7.511073975776049 1.365015114987878 -1 -2 1
2044 2012 4 3.0708339282952566 9.40085524679229 1.2206656853447186 0 -1 -1